s 5.000000000 _1_ AGT  --- 0 tcp 40 [0 0 0 0] ------- [1:0 3:0 32 0] [0 0] 0 0
r 5.000000000 _1_ RTR  --- 0 tcp 40 [0 0 0 0] ------- [1:0 3:0 32 0] [0 0] 0 0
M 5.00000 0 (569.72, 56.46, 0.00), (661.18, 475.21), 20.00
M 5.00000 1 (167.53, 120.11, 0.00), (121.87, 98.80), 20.00
M 5.00000 2 (449.22, 531.23, 0.00), (50.12, 191.46), 20.00
M 5.00000 3 (371.15, 133.15, 0.00), (424.59, 501.51), 20.00
s 5.000000000 _1_ RTR  --- 0 AODV 48 [0 0 0 0] ------- [1:255 -1:255 30 0] [0x2 1 1 [3 0] [1 4]] (REQUEST)
r 5.000988680 _3_ RTR  --- 0 AODV 48 [0 ffffffff 1 800] ------- [1:255 -1:255 30 0] [0x2 1 1 [3 0] [1 4]] (REQUEST)
s 5.000988680 _3_ RTR  --- 0 AODV 44 [0 0 0 0] ------- [3:255 1:255 30 1] [0x4 1 [3 4] 10.000000] (REPLY)
r 5.005651443 _1_ RTR  --- 0 AODV 44 [13a 1 3 800] ------- [3:255 1:255 30 1] [0x4 1 [3 4] 10.000000] (REPLY)
s 5.005651443 _1_ RTR  --- 0 tcp 40 [0 0 0 0] ------- [1:0 3:0 30 3] [0 0] 0 0
r 5.007637485 _3_ AGT  --- 0 tcp 40 [13a 3 1 800] ------- [1:0 3:0 30 3] [0 0] 1 0
s 5.007637485 _3_ AGT  --- 1 ack 40 [0 0 0 0] ------- [3:0 1:0 32 0] [0 0] 0 0
r 5.007637485 _3_ RTR  --- 1 ack 40 [0 0 0 0] ------- [3:0 1:0 32 0] [0 0] 0 0
s 5.007637485 _3_ RTR  --- 1 ack 40 [0 0 0 0] ------- [3:0 1:0 30 1] [0 0] 0 0
r 5.009503527 _1_ AGT  --- 1 ack 40 [13a 1 3 800] ------- [3:0 1:0 30 1] [0 0] 1 0
s 5.009503527 _1_ AGT  --- 2 tcp 1040 [0 0 0 0] ------- [1:0 3:0 32 0] [1 0] 0 0
r 5.009503527 _1_ RTR  --- 2 tcp 1040 [0 0 0 0] ------- [1:0 3:0 32 0] [1 0] 0 0
s 5.009503527 _1_ AGT  --- 3 tcp 1040 [0 0 0 0] ------- [1:0 3:0 32 0] [2 0] 0 0
r 5.009503527 _1_ RTR  --- 3 tcp 1040 [0 0 0 0] ------- [1:0 3:0 32 0] [2 0] 0 0
s 5.009503527 _1_ RTR  --- 2 tcp 1040 [0 0 0 0] ------- [1:0 3:0 30 3] [1 0] 0 0
s 5.009503527 _1_ RTR  --- 3 tcp 1040 [0 0 0 0] ------- [1:0 3:0 30 3] [2 0] 0 0
r 5.019529570 _3_ AGT  --- 2 tcp 1040 [13a 3 1 800] ------- [1:0 3:0 30 3] [1 0] 1 0
s 5.019529570 _3_ AGT  --- 4 ack 40 [0 0 0 0] ------- [3:0 1:0 32 0] [1 0] 0 0
r 5.019529570 _3_ RTR  --- 4 ack 40 [0 0 0 0] ------- [3:0 1:0 32 0] [1 0] 0 0
s 5.019529570 _3_ RTR  --- 4 ack 40 [0 0 0 0] ------- [3:0 1:0 30 1] [1 0] 0 0
r 5.021515615 _1_ AGT  --- 4 ack 40 [13a 1 3 800] ------- [3:0 1:0 30 1] [1 0] 1 0
s 5.021515615 _1_ AGT  --- 5 tcp 1040 [0 0 0 0] ------- [1:0 3:0 32 0] [3 0] 0 0
r 5.021515615 _1_ RTR  --- 5 tcp 1040 [0 0 0 0] ------- [1:0 3:0 32 0] [3 0] 0 0
s 5.021515615 _1_ AGT  --- 6 tcp 1040 [0 0 0 0] ------- [1:0 3:0 32 0] [4 0] 0 0
r 5.021515615 _1_ RTR  --- 6 tcp 1040 [0 0 0 0] ------- [1:0 3:0 32 0] [4 0] 0 0
s 5.021515615 _1_ RTR  --- 5 tcp 1040 [0 0 0 0] ------- [1:0 3:0 30 3] [3 0] 0 0
s 5.021515615 _1_ RTR  --- 6 tcp 1040 [0 0 0 0] ------- [1:0 3:0 30 3] [4 0] 0 0
r 5.031441660 _3_ AGT  --- 3 tcp 1040 [13a 3 1 800] ------- [1:0 3:0 30 3] [2 0] 1 0
s 5.031441660 _3_ AGT  --- 7 ack 40 [0 0 0 0] ------- [3:0 1:0 32 0] [2 0] 0 0
r 5.031441660 _3_ RTR  --- 7 ack 40 [0 0 0 0] ------- [3:0 1:0 32 0] [2 0] 0 0
s 5.031441660 _3_ RTR  --- 7 ack 40 [0 0 0 0] ------- [3:0 1:0 30 1] [2 0] 0 0
r 5.041308390 _3_ AGT  --- 5 tcp 1040 [13a 3 1 800] ------- [1:0 3:0 30 3] [3 0] 1 0
s 5.041308390 _3_ AGT  --- 8 ack 40 [0 0 0 0] ------- [3:0 1:0 32 0] [3 0] 0 0
r 5.041308390 _3_ RTR  --- 8 ack 40 [0 0 0 0] ------- [3:0 1:0 32 0] [3 0] 0 0
s 5.041308390 _3_ RTR  --- 8 ack 40 [0 0 0 0] ------- [3:0 1:0 30 1] [3 0] 0 0
r 5.043234440 _1_ AGT  --- 7 ack 40 [13a 1 3 800] ------- [3:0 1:0 30 1] [2 0] 1 0
s 5.043234440 _1_ AGT  --- 9 tcp 1040 [0 0 0 0] ------- [1:0 3:0 32 0] [5 0] 0 0
r 5.043234440 _1_ RTR  --- 9 tcp 1040 [0 0 0 0] ------- [1:0 3:0 32 0] [5 0] 0 0
s 5.043234440 _1_ AGT  --- 10 tcp 1040 [0 0 0 0] ------- [1:0 3:0 32 0] [6 0] 0 0
r 5.043234440 _1_ RTR  --- 10 tcp 1040 [0 0 0 0] ------- [1:0 3:0 32 0] [6 0] 0 0
s 5.043234440 _1_ RTR  --- 9 tcp 1040 [0 0 0 0] ------- [1:0 3:0 30 3] [5 0] 0 0
s 5.043234440 _1_ RTR  --- 10 tcp 1040 [0 0 0 0] ------- [1:0 3:0 30 3] [6 0] 0 0
r 5.045221174 _1_ AGT  --- 8 ack 40 [13a 1 3 800] ------- [3:0 1:0 30 1] [3 0] 1 0
s 5.045221174 _1_ AGT  --- 11 tcp 1040 [0 0 0 0] ------- [1:0 3:0 32 0] [7 0] 0 0
r 5.045221174 _1_ RTR  --- 11 tcp 1040 [0 0 0 0] ------- [1:0 3:0 32 0] [7 0] 0 0
s 5.045221174 _1_ AGT  --- 12 tcp 1040 [0 0 0 0] ------- [1:0 3:0 32 0] [8 0] 0 0
r 5.045221174 _1_ RTR  --- 12 tcp 1040 [0 0 0 0] ------- [1:0 3:0 32 0] [8 0] 0 0
s 5.045221174 _1_ RTR  --- 11 tcp 1040 [0 0 0 0] ------- [1:0 3:0 30 3] [7 0] 0 0
s 5.045221174 _1_ RTR  --- 12 tcp 1040 [0 0 0 0] ------- [1:0 3:0 30 3] [8 0] 0 0
r 5.055327225 _3_ AGT  --- 6 tcp 1040 [13a 3 1 800] ------- [1:0 3:0 30 3] [4 0] 1 0
s 5.055327225 _3_ AGT  --- 13 ack 40 [0 0 0 0] ------- [3:0 1:0 32 0] [4 0] 0 0
r 5.055327225 _3_ RTR  --- 13 ack 40 [0 0 0 0] ------- [3:0 1:0 32 0] [4 0] 0 0
s 5.055327225 _3_ RTR  --- 13 ack 40 [0 0 0 0] ------- [3:0 1:0 30 1] [4 0] 0 0
r 5.057233278 _1_ AGT  --- 13 ack 40 [13a 1 3 800] ------- [3:0 1:0 30 1] [4 0] 1 0
s 5.057233278 _1_ AGT  --- 14 tcp 1040 [0 0 0 0] ------- [1:0 3:0 32 0] [9 0] 0 0
r 5.057233278 _1_ RTR  --- 14 tcp 1040 [0 0 0 0] ------- [1:0 3:0 32 0] [9 0] 0 0
s 5.057233278 _1_ AGT  --- 15 tcp 1040 [0 0 0 0] ------- [1:0 3:0 32 0] [10 0] 0 0
r 5.057233278 _1_ RTR  --- 15 tcp 1040 [0 0 0 0] ------- [1:0 3:0 32 0] [10 0] 0 0
s 5.057233278 _1_ RTR  --- 14 tcp 1040 [0 0 0 0] ------- [1:0 3:0 30 3] [9 0] 0 0
s 5.057233278 _1_ RTR  --- 15 tcp 1040 [0 0 0 0] ------- [1:0 3:0 30 3] [10 0] 0 0
r 5.067219332 _3_ AGT  --- 9 tcp 1040 [13a 3 1 800] ------- [1:0 3:0 30 3] [5 0] 1 0
s 5.067219332 _3_ AGT  --- 16 ack 40 [0 0 0 0] ------- [3:0 1:0 32 0] [5 0] 0 0
r 5.067219332 _3_ RTR  --- 16 ack 40 [0 0 0 0] ------- [3:0 1:0 32 0] [5 0] 0 0
s 5.067219332 _3_ RTR  --- 16 ack 40 [0 0 0 0] ------- [3:0 1:0 30 1] [5 0] 0 0
r 5.077386073 _3_ AGT  --- 10 tcp 1040 [13a 3 1 800] ------- [1:0 3:0 30 3] [6 0] 1 0
s 5.077386073 _3_ AGT  --- 17 ack 40 [0 0 0 0] ------- [3:0 1:0 32 0] [6 0] 0 0
r 5.077386073 _3_ RTR  --- 17 ack 40 [0 0 0 0] ------- [3:0 1:0 32 0] [6 0] 0 0
s 5.077386073 _3_ RTR  --- 17 ack 40 [0 0 0 0] ------- [3:0 1:0 30 1] [6 0] 0 0
r 5.079352132 _1_ AGT  --- 16 ack 40 [13a 1 3 800] ------- [3:0 1:0 30 1] [5 0] 1 0
s 5.079352132 _1_ AGT  --- 18 tcp 1040 [0 0 0 0] ------- [1:0 3:0 32 0] [11 0] 0 0
r 5.079352132 _1_ RTR  --- 18 tcp 1040 [0 0 0 0] ------- [1:0 3:0 32 0] [11 0] 0 0
s 5.079352132 _1_ AGT  --- 19 tcp 1040 [0 0 0 0] ------- [1:0 3:0 32 0] [12 0] 0 0
r 5.079352132 _1_ RTR  --- 19 tcp 1040 [0 0 0 0] ------- [1:0 3:0 32 0] [12 0] 0 0
s 5.079352132 _1_ RTR  --- 18 tcp 1040 [0 0 0 0] ------- [1:0 3:0 30 3] [11 0] 0 0
s 5.079352132 _1_ RTR  --- 19 tcp 1040 [0 0 0 0] ------- [1:0 3:0 30 3] [12 0] 0 0
r 5.089358190 _3_ AGT  --- 11 tcp 1040 [13a 3 1 800] ------- [1:0 3:0 30 3] [7 0] 1 0
s 5.089358190 _3_ AGT  --- 20 ack 40 [0 0 0 0] ------- [3:0 1:0 32 0] [7 0] 0 0
r 5.089358190 _3_ RTR  --- 20 ack 40 [0 0 0 0] ------- [3:0 1:0 32 0] [7 0] 0 0
s 5.089358190 _3_ RTR  --- 20 ack 40 [0 0 0 0] ------- [3:0 1:0 30 1] [7 0] 0 0
r 5.091204251 _1_ AGT  --- 17 ack 40 [13a 1 3 800] ------- [3:0 1:0 30 1] [6 0] 1 0
s 5.091204251 _1_ AGT  --- 21 tcp 1040 [0 0 0 0] ------- [1:0 3:0 32 0] [13 0] 0 0
r 5.091204251 _1_ RTR  --- 21 tcp 1040 [0 0 0 0] ------- [1:0 3:0 32 0] [13 0] 0 0
s 5.091204251 _1_ AGT  --- 22 tcp 1040 [0 0 0 0] ------- [1:0 3:0 32 0] [14 0] 0 0
r 5.091204251 _1_ RTR  --- 22 tcp 1040 [0 0 0 0] ------- [1:0 3:0 32 0] [14 0] 0 0
s 5.091204251 _1_ RTR  --- 21 tcp 1040 [0 0 0 0] ------- [1:0 3:0 30 3] [13 0] 0 0
s 5.091204251 _1_ RTR  --- 22 tcp 1040 [0 0 0 0] ------- [1:0 3:0 30 3] [14 0] 0 0
r 5.093051000 _1_ AGT  --- 20 ack 40 [13a 1 3 800] ------- [3:0 1:0 30 1] [7 0] 1 0
s 5.093051000 _1_ AGT  --- 23 tcp 1040 [0 0 0 0] ------- [1:0 3:0 32 0] [15 0] 0 0
r 5.093051000 _1_ RTR  --- 23 tcp 1040 [0 0 0 0] ------- [1:0 3:0 32 0] [15 0] 0 0
s 5.093051000 _1_ AGT  --- 24 tcp 1040 [0 0 0 0] ------- [1:0 3:0 32 0] [16 0] 0 0
r 5.093051000 _1_ RTR  --- 24 tcp 1040 [0 0 0 0] ------- [1:0 3:0 32 0] [16 0] 0 0
s 5.093051000 _1_ RTR  --- 23 tcp 1040 [0 0 0 0] ------- [1:0 3:0 30 3] [15 0] 0 0
s 5.093051000 _1_ RTR  --- 24 tcp 1040 [0 0 0 0] ------- [1:0 3:0 30 3] [16 0] 0 0
r 5.103057062 _3_ AGT  --- 12 tcp 1040 [13a 3 1 800] ------- [1:0 3:0 30 3] [8 0] 1 0
s 5.103057062 _3_ AGT  --- 25 ack 40 [0 0 0 0] ------- [3:0 1:0 32 0] [8 0] 0 0
r 5.103057062 _3_ RTR  --- 25 ack 40 [0 0 0 0] ------- [3:0 1:0 32 0] [8 0] 0 0
s 5.103057062 _3_ RTR  --- 25 ack 40 [0 0 0 0] ------- [3:0 1:0 30 1] [8 0] 0 0
r 5.104943126 _1_ AGT  --- 25 ack 40 [13a 1 3 800] ------- [3:0 1:0 30 1] [8 0] 1 0
s 5.104943126 _1_ AGT  --- 26 tcp 1040 [0 0 0 0] ------- [1:0 3:0 32 0] [17 0] 0 0
r 5.104943126 _1_ RTR  --- 26 tcp 1040 [0 0 0 0] ------- [1:0 3:0 32 0] [17 0] 0 0
s 5.104943126 _1_ AGT  --- 27 tcp 1040 [0 0 0 0] ------- [1:0 3:0 32 0] [18 0] 0 0
r 5.104943126 _1_ RTR  --- 27 tcp 1040 [0 0 0 0] ------- [1:0 3:0 32 0] [18 0] 0 0
s 5.104943126 _1_ RTR  --- 26 tcp 1040 [0 0 0 0] ------- [1:0 3:0 30 3] [17 0] 0 0
s 5.104943126 _1_ RTR  --- 27 tcp 1040 [0 0 0 0] ------- [1:0 3:0 30 3] [18 0] 0 0
r 5.115149191 _3_ AGT  --- 14 tcp 1040 [13a 3 1 800] ------- [1:0 3:0 30 3] [9 0] 1 0
s 5.115149191 _3_ AGT  --- 28 ack 40 [0 0 0 0] ------- [3:0 1:0 32 0] [9 0] 0 0
r 5.115149191 _3_ RTR  --- 28 ack 40 [0 0 0 0] ------- [3:0 1:0 32 0] [9 0] 0 0
s 5.115149191 _3_ RTR  --- 28 ack 40 [0 0 0 0] ------- [3:0 1:0 30 1] [9 0] 0 0
r 5.125375947 _3_ AGT  --- 15 tcp 1040 [13a 3 1 800] ------- [1:0 3:0 30 3] [10 0] 1 0
s 5.125375947 _3_ AGT  --- 29 ack 40 [0 0 0 0] ------- [3:0 1:0 32 0] [10 0] 0 0
r 5.125375947 _3_ RTR  --- 29 ack 40 [0 0 0 0] ------- [3:0 1:0 32 0] [10 0] 0 0
s 5.125375947 _3_ RTR  --- 29 ack 40 [0 0 0 0] ------- [3:0 1:0 30 1] [10 0] 0 0
r 5.127382016 _1_ AGT  --- 28 ack 40 [13a 1 3 800] ------- [3:0 1:0 30 1] [9 0] 1 0
s 5.127382016 _1_ AGT  --- 30 tcp 1040 [0 0 0 0] ------- [1:0 3:0 32 0] [19 0] 0 0
r 5.127382016 _1_ RTR  --- 30 tcp 1040 [0 0 0 0] ------- [1:0 3:0 32 0] [19 0] 0 0
s 5.127382016 _1_ AGT  --- 31 tcp 1040 [0 0 0 0] ------- [1:0 3:0 32 0] [20 0] 0 0
r 5.127382016 _1_ RTR  --- 31 tcp 1040 [0 0 0 0] ------- [1:0 3:0 32 0] [20 0] 0 0
s 5.127382016 _1_ RTR  --- 30 tcp 1040 [0 0 0 0] ------- [1:0 3:0 30 3] [19 0] 0 0
s 5.127382016 _1_ RTR  --- 31 tcp 1040 [0 0 0 0] ------- [1:0 3:0 30 3] [20 0] 0 0
r 5.139355466 _3_ AGT  --- 18 tcp 1040 [13a 3 1 800] ------- [1:0 3:0 30 3] [11 0] 1 0
s 5.139355466 _3_ AGT  --- 32 ack 40 [0 0 0 0] ------- [3:0 1:0 32 0] [11 0] 0 0
r 5.139355466 _3_ RTR  --- 32 ack 40 [0 0 0 0] ------- [3:0 1:0 32 0] [11 0] 0 0
s 5.139355466 _3_ RTR  --- 32 ack 40 [0 0 0 0] ------- [3:0 1:0 30 1] [11 0] 0 0
r 5.141281539 _1_ AGT  --- 29 ack 40 [13a 1 3 800] ------- [3:0 1:0 30 1] [10 0] 1 0
s 5.141281539 _1_ AGT  --- 33 tcp 1040 [0 0 0 0] ------- [1:0 3:0 32 0] [21 0] 0 0
r 5.141281539 _1_ RTR  --- 33 tcp 1040 [0 0 0 0] ------- [1:0 3:0 32 0] [21 0] 0 0
s 5.141281539 _1_ AGT  --- 34 tcp 1040 [0 0 0 0] ------- [1:0 3:0 32 0] [22 0] 0 0
r 5.141281539 _1_ RTR  --- 34 tcp 1040 [0 0 0 0] ------- [1:0 3:0 32 0] [22 0] 0 0
s 5.141281539 _1_ RTR  --- 33 tcp 1040 [0 0 0 0] ------- [1:0 3:0 30 3] [21 0] 0 0
s 5.141281539 _1_ RTR  --- 34 tcp 1040 [0 0 0 0] ------- [1:0 3:0 30 3] [22 0] 0 0
r 5.143248303 _1_ AGT  --- 32 ack 40 [13a 1 3 800] ------- [3:0 1:0 30 1] [11 0] 1 0
s 5.143248303 _1_ AGT  --- 35 tcp 1040 [0 0 0 0] ------- [1:0 3:0 32 0] [23 0] 0 0
r 5.143248303 _1_ RTR  --- 35 tcp 1040 [0 0 0 0] ------- [1:0 3:0 32 0] [23 0] 0 0
s 5.143248303 _1_ AGT  --- 36 tcp 1040 [0 0 0 0] ------- [1:0 3:0 32 0] [24 0] 0 0
r 5.143248303 _1_ RTR  --- 36 tcp 1040 [0 0 0 0] ------- [1:0 3:0 32 0] [24 0] 0 0
s 5.143248303 _1_ RTR  --- 35 tcp 1040 [0 0 0 0] ------- [1:0 3:0 30 3] [23 0] 0 0
s 5.143248303 _1_ RTR  --- 36 tcp 1040 [0 0 0 0] ------- [1:0 3:0 30 3] [24 0] 0 0
r 5.153194377 _3_ AGT  --- 19 tcp 1040 [13a 3 1 800] ------- [1:0 3:0 30 3] [12 0] 1 0
s 5.153194377 _3_ AGT  --- 37 ack 40 [0 0 0 0] ------- [3:0 1:0 32 0] [12 0] 0 0
r 5.153194377 _3_ RTR  --- 37 ack 40 [0 0 0 0] ------- [3:0 1:0 32 0] [12 0] 0 0
s 5.153194377 _3_ RTR  --- 37 ack 40 [0 0 0 0] ------- [3:0 1:0 30 1] [12 0] 0 0
r 5.163221144 _3_ AGT  --- 21 tcp 1040 [13a 3 1 800] ------- [1:0 3:0 30 3] [13 0] 1 0
s 5.163221144 _3_ AGT  --- 38 ack 40 [0 0 0 0] ------- [3:0 1:0 32 0] [13 0] 0 0
r 5.163221144 _3_ RTR  --- 38 ack 40 [0 0 0 0] ------- [3:0 1:0 32 0] [13 0] 0 0
s 5.163221144 _3_ RTR  --- 38 ack 40 [0 0 0 0] ------- [3:0 1:0 30 1] [13 0] 0 0
r 5.165127222 _1_ AGT  --- 37 ack 40 [13a 1 3 800] ------- [3:0 1:0 30 1] [12 0] 1 0
s 5.165127222 _1_ AGT  --- 39 tcp 1040 [0 0 0 0] ------- [1:0 3:0 32 0] [25 0] 0 0
r 5.165127222 _1_ RTR  --- 39 tcp 1040 [0 0 0 0] ------- [1:0 3:0 32 0] [25 0] 0 0
s 5.165127222 _1_ AGT  --- 40 tcp 1040 [0 0 0 0] ------- [1:0 3:0 32 0] [26 0] 0 0
r 5.165127222 _1_ RTR  --- 40 tcp 1040 [0 0 0 0] ------- [1:0 3:0 32 0] [26 0] 0 0
s 5.165127222 _1_ RTR  --- 39 tcp 1040 [0 0 0 0] ------- [1:0 3:0 30 3] [25 0] 0 0
s 5.165127222 _1_ RTR  --- 40 tcp 1040 [0 0 0 0] ------- [1:0 3:0 30 3] [26 0] 0 0
r 5.174973301 _3_ AGT  --- 22 tcp 1040 [13a 3 1 800] ------- [1:0 3:0 30 3] [14 0] 1 0
s 5.174973301 _3_ AGT  --- 41 ack 40 [0 0 0 0] ------- [3:0 1:0 32 0] [14 0] 0 0
r 5.174973301 _3_ RTR  --- 41 ack 40 [0 0 0 0] ------- [3:0 1:0 32 0] [14 0] 0 0
s 5.174973301 _3_ RTR  --- 41 ack 40 [0 0 0 0] ------- [3:0 1:0 30 1] [14 0] 0 0
r 5.185020076 _3_ AGT  --- 23 tcp 1040 [13a 3 1 800] ------- [1:0 3:0 30 3] [15 0] 1 0
s 5.185020076 _3_ AGT  --- 42 ack 40 [0 0 0 0] ------- [3:0 1:0 32 0] [15 0] 0 0
r 5.185020076 _3_ RTR  --- 42 ack 40 [0 0 0 0] ------- [3:0 1:0 32 0] [15 0] 0 0
s 5.185020076 _3_ RTR  --- 42 ack 40 [0 0 0 0] ------- [3:0 1:0 30 1] [15 0] 0 0
r 5.195046853 _3_ AGT  --- 24 tcp 1040 [13a 3 1 800] ------- [1:0 3:0 30 3] [16 0] 1 0
s 5.195046853 _3_ AGT  --- 43 ack 40 [0 0 0 0] ------- [3:0 1:0 32 0] [16 0] 0 0
r 5.195046853 _3_ RTR  --- 43 ack 40 [0 0 0 0] ------- [3:0 1:0 32 0] [16 0] 0 0
s 5.195046853 _3_ RTR  --- 43 ack 40 [0 0 0 0] ------- [3:0 1:0 30 1] [16 0] 0 0
r 5.196952939 _1_ AGT  --- 38 ack 40 [13a 1 3 800] ------- [3:0 1:0 30 1] [13 0] 1 0
s 5.196952939 _1_ AGT  --- 44 tcp 1040 [0 0 0 0] ------- [1:0 3:0 32 0] [27 0] 0 0
r 5.196952939 _1_ RTR  --- 44 tcp 1040 [0 0 0 0] ------- [1:0 3:0 32 0] [27 0] 0 0
s 5.196952939 _1_ AGT  --- 45 tcp 1040 [0 0 0 0] ------- [1:0 3:0 32 0] [28 0] 0 0
r 5.196952939 _1_ RTR  --- 45 tcp 1040 [0 0 0 0] ------- [1:0 3:0 32 0] [28 0] 0 0
s 5.196952939 _1_ RTR  --- 44 tcp 1040 [0 0 0 0] ------- [1:0 3:0 30 3] [27 0] 0 0
s 5.196952939 _1_ RTR  --- 45 tcp 1040 [0 0 0 0] ------- [1:0 3:0 30 3] [28 0] 0 0
r 5.198839720 _1_ AGT  --- 41 ack 40 [13a 1 3 800] ------- [3:0 1:0 30 1] [14 0] 1 0
s 5.198839720 _1_ AGT  --- 46 tcp 1040 [0 0 0 0] ------- [1:0 3:0 32 0] [29 0] 0 0
r 5.198839720 _1_ RTR  --- 46 tcp 1040 [0 0 0 0] ------- [1:0 3:0 32 0] [29 0] 0 0
s 5.198839720 _1_ AGT  --- 47 tcp 1040 [0 0 0 0] ------- [1:0 3:0 32 0] [30 0] 0 0
r 5.198839720 _1_ RTR  --- 47 tcp 1040 [0 0 0 0] ------- [1:0 3:0 32 0] [30 0] 0 0
s 5.198839720 _1_ RTR  --- 46 tcp 1040 [0 0 0 0] ------- [1:0 3:0 30 3] [29 0] 0 0
s 5.198839720 _1_ RTR  --- 47 tcp 1040 [0 0 0 0] ------- [1:0 3:0 30 3] [30 0] 0 0
r 5.200786502 _1_ AGT  --- 42 ack 40 [13a 1 3 800] ------- [3:0 1:0 30 1] [15 0] 1 0
s 5.200786502 _1_ AGT  --- 48 tcp 1040 [0 0 0 0] ------- [1:0 3:0 32 0] [31 0] 0 0
r 5.200786502 _1_ RTR  --- 48 tcp 1040 [0 0 0 0] ------- [1:0 3:0 32 0] [31 0] 0 0
s 5.200786502 _1_ AGT  --- 49 tcp 1040 [0 0 0 0] ------- [1:0 3:0 32 0] [32 0] 0 0
r 5.200786502 _1_ RTR  --- 49 tcp 1040 [0 0 0 0] ------- [1:0 3:0 32 0] [32 0] 0 0
s 5.200786502 _1_ RTR  --- 48 tcp 1040 [0 0 0 0] ------- [1:0 3:0 30 3] [31 0] 0 0
s 5.200786502 _1_ RTR  --- 49 tcp 1040 [0 0 0 0] ------- [1:0 3:0 30 3] [32 0] 0 0
r 5.210932589 _3_ AGT  --- 26 tcp 1040 [13a 3 1 800] ------- [1:0 3:0 30 3] [17 0] 1 0
s 5.210932589 _3_ AGT  --- 50 ack 40 [0 0 0 0] ------- [3:0 1:0 32 0] [17 0] 0 0
r 5.210932589 _3_ RTR  --- 50 ack 40 [0 0 0 0] ------- [3:0 1:0 32 0] [17 0] 0 0
s 5.210932589 _3_ RTR  --- 50 ack 40 [0 0 0 0] ------- [3:0 1:0 30 1] [17 0] 0 0
r 5.212778678 _1_ AGT  --- 43 ack 40 [13a 1 3 800] ------- [3:0 1:0 30 1] [16 0] 1 0
s 5.212778678 _1_ AGT  --- 51 tcp 1040 [0 0 0 0] ------- [1:0 3:0 32 0] [33 0] 0 0
r 5.212778678 _1_ RTR  --- 51 tcp 1040 [0 0 0 0] ------- [1:0 3:0 32 0] [33 0] 0 0
s 5.212778678 _1_ AGT  --- 52 tcp 1040 [0 0 0 0] ------- [1:0 3:0 32 0] [34 0] 0 0
r 5.212778678 _1_ RTR  --- 52 tcp 1040 [0 0 0 0] ------- [1:0 3:0 32 0] [34 0] 0 0
s 5.212778678 _1_ RTR  --- 51 tcp 1040 [0 0 0 0] ------- [1:0 3:0 30 3] [33 0] 0 0
s 5.212778678 _1_ RTR  --- 52 tcp 1040 [0 0 0 0] ------- [1:0 3:0 30 3] [34 0] 0 0
r 5.214885465 _1_ AGT  --- 50 ack 40 [13a 1 3 800] ------- [3:0 1:0 30 1] [17 0] 1 0
s 5.214885465 _1_ AGT  --- 53 tcp 1040 [0 0 0 0] ------- [1:0 3:0 32 0] [35 0] 0 0
r 5.214885465 _1_ RTR  --- 53 tcp 1040 [0 0 0 0] ------- [1:0 3:0 32 0] [35 0] 0 0
s 5.214885465 _1_ AGT  --- 54 tcp 1040 [0 0 0 0] ------- [1:0 3:0 32 0] [36 0] 0 0
r 5.214885465 _1_ RTR  --- 54 tcp 1040 [0 0 0 0] ------- [1:0 3:0 32 0] [36 0] 0 0
s 5.214885465 _1_ RTR  --- 53 tcp 1040 [0 0 0 0] ------- [1:0 3:0 30 3] [35 0] 0 0
s 5.214885465 _1_ RTR  --- 54 tcp 1040 [0 0 0 0] ------- [1:0 3:0 30 3] [36 0] 0 0
r 5.224911555 _3_ AGT  --- 27 tcp 1040 [13a 3 1 800] ------- [1:0 3:0 30 3] [18 0] 1 0
s 5.224911555 _3_ AGT  --- 55 ack 40 [0 0 0 0] ------- [3:0 1:0 32 0] [18 0] 0 0
r 5.224911555 _3_ RTR  --- 55 ack 40 [0 0 0 0] ------- [3:0 1:0 32 0] [18 0] 0 0
s 5.224911555 _3_ RTR  --- 55 ack 40 [0 0 0 0] ------- [3:0 1:0 30 1] [18 0] 0 0
r 5.227017648 _1_ AGT  --- 55 ack 40 [13a 1 3 800] ------- [3:0 1:0 30 1] [18 0] 1 0
s 5.227017648 _1_ AGT  --- 56 tcp 1040 [0 0 0 0] ------- [1:0 3:0 32 0] [37 0] 0 0
r 5.227017648 _1_ RTR  --- 56 tcp 1040 [0 0 0 0] ------- [1:0 3:0 32 0] [37 0] 0 0
s 5.227017648 _1_ AGT  --- 57 tcp 1040 [0 0 0 0] ------- [1:0 3:0 32 0] [38 0] 0 0
r 5.227017648 _1_ RTR  --- 57 tcp 1040 [0 0 0 0] ------- [1:0 3:0 32 0] [38 0] 0 0
s 5.227017648 _1_ RTR  --- 56 tcp 1040 [0 0 0 0] ------- [1:0 3:0 30 3] [37 0] 0 0
s 5.227017648 _1_ RTR  --- 57 tcp 1040 [0 0 0 0] ------- [1:0 3:0 30 3] [38 0] 0 0
r 5.237043741 _3_ AGT  --- 30 tcp 1040 [13a 3 1 800] ------- [1:0 3:0 30 3] [19 0] 1 0
s 5.237043741 _3_ AGT  --- 58 ack 40 [0 0 0 0] ------- [3:0 1:0 32 0] [19 0] 0 0
r 5.237043741 _3_ RTR  --- 58 ack 40 [0 0 0 0] ------- [3:0 1:0 32 0] [19 0] 0 0
s 5.237043741 _3_ RTR  --- 58 ack 40 [0 0 0 0] ------- [3:0 1:0 30 1] [19 0] 0 0
r 5.239089836 _1_ AGT  --- 58 ack 40 [13a 1 3 800] ------- [3:0 1:0 30 1] [19 0] 1 0
s 5.239089836 _1_ AGT  --- 59 tcp 1040 [0 0 0 0] ------- [1:0 3:0 32 0] [39 0] 0 0
r 5.239089836 _1_ RTR  --- 59 tcp 1040 [0 0 0 0] ------- [1:0 3:0 32 0] [39 0] 0 0
s 5.239089836 _1_ RTR  --- 59 tcp 1040 [0 0 0 0] ------- [1:0 3:0 30 3] [39 0] 0 0
r 5.249015932 _3_ AGT  --- 31 tcp 1040 [13a 3 1 800] ------- [1:0 3:0 30 3] [20 0] 1 0
s 5.249015932 _3_ AGT  --- 60 ack 40 [0 0 0 0] ------- [3:0 1:0 32 0] [20 0] 0 0
r 5.249015932 _3_ RTR  --- 60 ack 40 [0 0 0 0] ------- [3:0 1:0 32 0] [20 0] 0 0
s 5.249015932 _3_ RTR  --- 60 ack 40 [0 0 0 0] ------- [3:0 1:0 30 1] [20 0] 0 0
r 5.250902031 _1_ AGT  --- 60 ack 40 [13a 1 3 800] ------- [3:0 1:0 30 1] [20 0] 1 0
s 5.250902031 _1_ AGT  --- 61 tcp 1040 [0 0 0 0] ------- [1:0 3:0 32 0] [40 0] 0 0
r 5.250902031 _1_ RTR  --- 61 tcp 1040 [0 0 0 0] ------- [1:0 3:0 32 0] [40 0] 0 0
s 5.250902031 _1_ RTR  --- 61 tcp 1040 [0 0 0 0] ------- [1:0 3:0 30 3] [40 0] 0 0
r 5.260888129 _3_ AGT  --- 33 tcp 1040 [13a 3 1 800] ------- [1:0 3:0 30 3] [21 0] 1 0
s 5.260888129 _3_ AGT  --- 62 ack 40 [0 0 0 0] ------- [3:0 1:0 32 0] [21 0] 0 0
r 5.260888129 _3_ RTR  --- 62 ack 40 [0 0 0 0] ------- [3:0 1:0 32 0] [21 0] 0 0
s 5.260888129 _3_ RTR  --- 62 ack 40 [0 0 0 0] ------- [3:0 1:0 30 1] [21 0] 0 0
r 5.270714931 _3_ AGT  --- 34 tcp 1040 [13a 3 1 800] ------- [1:0 3:0 30 3] [22 0] 1 0
s 5.270714931 _3_ AGT  --- 63 ack 40 [0 0 0 0] ------- [3:0 1:0 32 0] [22 0] 0 0
r 5.270714931 _3_ RTR  --- 63 ack 40 [0 0 0 0] ------- [3:0 1:0 32 0] [22 0] 0 0
s 5.270714931 _3_ RTR  --- 63 ack 40 [0 0 0 0] ------- [3:0 1:0 30 1] [22 0] 0 0
r 5.280781735 _3_ AGT  --- 35 tcp 1040 [13a 3 1 800] ------- [1:0 3:0 30 3] [23 0] 1 0
s 5.280781735 _3_ AGT  --- 64 ack 40 [0 0 0 0] ------- [3:0 1:0 32 0] [23 0] 0 0
r 5.280781735 _3_ RTR  --- 64 ack 40 [0 0 0 0] ------- [3:0 1:0 32 0] [23 0] 0 0
s 5.280781735 _3_ RTR  --- 64 ack 40 [0 0 0 0] ------- [3:0 1:0 30 1] [23 0] 0 0
r 5.282667841 _1_ AGT  --- 62 ack 40 [13a 1 3 800] ------- [3:0 1:0 30 1] [21 0] 1 0
s 5.282667841 _1_ AGT  --- 65 tcp 1040 [0 0 0 0] ------- [1:0 3:0 32 0] [41 0] 0 0
r 5.282667841 _1_ RTR  --- 65 tcp 1040 [0 0 0 0] ------- [1:0 3:0 32 0] [41 0] 0 0
s 5.282667841 _1_ RTR  --- 65 tcp 1040 [0 0 0 0] ------- [1:0 3:0 30 3] [41 0] 0 0
r 5.292733947 _3_ AGT  --- 36 tcp 1040 [13a 3 1 800] ------- [1:0 3:0 30 3] [24 0] 1 0
s 5.292733947 _3_ AGT  --- 66 ack 40 [0 0 0 0] ------- [3:0 1:0 32 0] [24 0] 0 0
r 5.292733947 _3_ RTR  --- 66 ack 40 [0 0 0 0] ------- [3:0 1:0 32 0] [24 0] 0 0
s 5.292733947 _3_ RTR  --- 66 ack 40 [0 0 0 0] ------- [3:0 1:0 30 1] [24 0] 0 0
r 5.302580759 _3_ AGT  --- 39 tcp 1040 [13a 3 1 800] ------- [1:0 3:0 30 3] [25 0] 1 0
s 5.302580759 _3_ AGT  --- 67 ack 40 [0 0 0 0] ------- [3:0 1:0 32 0] [25 0] 0 0
r 5.302580759 _3_ RTR  --- 67 ack 40 [0 0 0 0] ------- [3:0 1:0 32 0] [25 0] 0 0
s 5.302580759 _3_ RTR  --- 67 ack 40 [0 0 0 0] ------- [3:0 1:0 30 1] [25 0] 0 0
r 5.304426870 _1_ AGT  --- 63 ack 40 [13a 1 3 800] ------- [3:0 1:0 30 1] [22 0] 1 0
s 5.304426870 _1_ AGT  --- 68 tcp 1040 [0 0 0 0] ------- [1:0 3:0 32 0] [42 0] 0 0
r 5.304426870 _1_ RTR  --- 68 tcp 1040 [0 0 0 0] ------- [1:0 3:0 32 0] [42 0] 0 0
s 5.304426870 _1_ RTR  --- 68 tcp 1040 [0 0 0 0] ------- [1:0 3:0 30 3] [42 0] 0 0
r 5.306493685 _1_ AGT  --- 64 ack 40 [13a 1 3 800] ------- [3:0 1:0 30 1] [23 0] 1 0
s 5.306493685 _1_ AGT  --- 69 tcp 1040 [0 0 0 0] ------- [1:0 3:0 32 0] [43 0] 0 0
r 5.306493685 _1_ RTR  --- 69 tcp 1040 [0 0 0 0] ------- [1:0 3:0 32 0] [43 0] 0 0
s 5.306493685 _1_ RTR  --- 69 tcp 1040 [0 0 0 0] ------- [1:0 3:0 30 3] [43 0] 0 0
r 5.308440501 _1_ AGT  --- 66 ack 40 [13a 1 3 800] ------- [3:0 1:0 30 1] [24 0] 1 0
s 5.308440501 _1_ AGT  --- 70 tcp 1040 [0 0 0 0] ------- [1:0 3:0 32 0] [44 0] 0 0
r 5.308440501 _1_ RTR  --- 70 tcp 1040 [0 0 0 0] ------- [1:0 3:0 32 0] [44 0] 0 0
s 5.308440501 _1_ RTR  --- 70 tcp 1040 [0 0 0 0] ------- [1:0 3:0 30 3] [44 0] 0 0
r 5.318366613 _3_ AGT  --- 40 tcp 1040 [13a 3 1 800] ------- [1:0 3:0 30 3] [26 0] 1 0
s 5.318366613 _3_ AGT  --- 71 ack 40 [0 0 0 0] ------- [3:0 1:0 32 0] [26 0] 0 0
r 5.318366613 _3_ RTR  --- 71 ack 40 [0 0 0 0] ------- [3:0 1:0 32 0] [26 0] 0 0
s 5.318366613 _3_ RTR  --- 71 ack 40 [0 0 0 0] ------- [3:0 1:0 30 1] [26 0] 0 0
r 5.328233433 _3_ AGT  --- 44 tcp 1040 [13a 3 1 800] ------- [1:0 3:0 30 3] [27 0] 1 0
s 5.328233433 _3_ AGT  --- 72 ack 40 [0 0 0 0] ------- [3:0 1:0 32 0] [27 0] 0 0
r 5.328233433 _3_ RTR  --- 72 ack 40 [0 0 0 0] ------- [3:0 1:0 32 0] [27 0] 0 0
s 5.328233433 _3_ RTR  --- 72 ack 40 [0 0 0 0] ------- [3:0 1:0 30 1] [27 0] 0 0
r 5.330219550 _1_ AGT  --- 67 ack 40 [13a 1 3 800] ------- [3:0 1:0 30 1] [25 0] 1 0
s 5.330219550 _1_ AGT  --- 73 tcp 1040 [0 0 0 0] ------- [1:0 3:0 32 0] [45 0] 0 0
r 5.330219550 _1_ RTR  --- 73 tcp 1040 [0 0 0 0] ------- [1:0 3:0 32 0] [45 0] 0 0
s 5.330219550 _1_ RTR  --- 73 tcp 1040 [0 0 0 0] ------- [1:0 3:0 30 3] [45 0] 0 0
r 5.332166373 _1_ AGT  --- 71 ack 40 [13a 1 3 800] ------- [3:0 1:0 30 1] [26 0] 1 0
s 5.332166373 _1_ AGT  --- 74 tcp 1040 [0 0 0 0] ------- [1:0 3:0 32 0] [46 0] 0 0
r 5.332166373 _1_ RTR  --- 74 tcp 1040 [0 0 0 0] ------- [1:0 3:0 32 0] [46 0] 0 0
s 5.332166373 _1_ RTR  --- 74 tcp 1040 [0 0 0 0] ------- [1:0 3:0 30 3] [46 0] 0 0
r 5.342172492 _3_ AGT  --- 45 tcp 1040 [13a 3 1 800] ------- [1:0 3:0 30 3] [28 0] 1 0
s 5.342172492 _3_ AGT  --- 75 ack 40 [0 0 0 0] ------- [3:0 1:0 32 0] [28 0] 0 0
r 5.342172492 _3_ RTR  --- 75 ack 40 [0 0 0 0] ------- [3:0 1:0 32 0] [28 0] 0 0
s 5.342172492 _3_ RTR  --- 75 ack 40 [0 0 0 0] ------- [3:0 1:0 30 1] [28 0] 0 0
r 5.344018612 _1_ AGT  --- 72 ack 40 [13a 1 3 800] ------- [3:0 1:0 30 1] [27 0] 1 0
s 5.344018612 _1_ AGT  --- 76 tcp 1040 [0 0 0 0] ------- [1:0 3:0 32 0] [47 0] 0 0
r 5.344018612 _1_ RTR  --- 76 tcp 1040 [0 0 0 0] ------- [1:0 3:0 32 0] [47 0] 0 0
s 5.344018612 _1_ RTR  --- 76 tcp 1040 [0 0 0 0] ------- [1:0 3:0 30 3] [47 0] 0 0
r 5.354772147 _3_ AGT  --- 46 tcp 1040 [13a 3 1 800] ------- [1:0 3:0 30 3] [29 0] 1 0
s 5.354772147 _3_ AGT  --- 77 ack 40 [0 0 0 0] ------- [3:0 1:0 32 0] [29 0] 0 0
r 5.354772147 _3_ RTR  --- 77 ack 40 [0 0 0 0] ------- [3:0 1:0 32 0] [29 0] 0 0
s 5.354772147 _3_ RTR  --- 77 ack 40 [0 0 0 0] ------- [3:0 1:0 30 1] [29 0] 0 0
r 5.364658978 _3_ AGT  --- 47 tcp 1040 [13a 3 1 800] ------- [1:0 3:0 30 3] [30 0] 1 0
s 5.364658978 _3_ AGT  --- 78 ack 40 [0 0 0 0] ------- [3:0 1:0 32 0] [30 0] 0 0
r 5.364658978 _3_ RTR  --- 78 ack 40 [0 0 0 0] ------- [3:0 1:0 32 0] [30 0] 0 0
s 5.364658978 _3_ RTR  --- 78 ack 40 [0 0 0 0] ------- [3:0 1:0 30 1] [30 0] 0 0
r 5.366705104 _1_ AGT  --- 75 ack 40 [13a 1 3 800] ------- [3:0 1:0 30 1] [28 0] 1 0
s 5.366705104 _1_ AGT  --- 79 tcp 1040 [0 0 0 0] ------- [1:0 3:0 32 0] [48 0] 0 0
r 5.366705104 _1_ RTR  --- 79 tcp 1040 [0 0 0 0] ------- [1:0 3:0 32 0] [48 0] 0 0
s 5.366705104 _1_ RTR  --- 79 tcp 1040 [0 0 0 0] ------- [1:0 3:0 30 3] [48 0] 0 0
r 5.376651230 _3_ AGT  --- 48 tcp 1040 [13a 3 1 800] ------- [1:0 3:0 30 3] [31 0] 1 0
s 5.376651230 _3_ AGT  --- 80 ack 40 [0 0 0 0] ------- [3:0 1:0 32 0] [31 0] 0 0
r 5.376651230 _3_ RTR  --- 80 ack 40 [0 0 0 0] ------- [3:0 1:0 32 0] [31 0] 0 0
s 5.376651230 _3_ RTR  --- 80 ack 40 [0 0 0 0] ------- [3:0 1:0 30 1] [31 0] 0 0
r 5.386598068 _3_ AGT  --- 49 tcp 1040 [13a 3 1 800] ------- [1:0 3:0 30 3] [32 0] 1 0
s 5.386598068 _3_ AGT  --- 81 ack 40 [0 0 0 0] ------- [3:0 1:0 32 0] [32 0] 0 0
r 5.386598068 _3_ RTR  --- 81 ack 40 [0 0 0 0] ------- [3:0 1:0 32 0] [32 0] 0 0
s 5.386598068 _3_ RTR  --- 81 ack 40 [0 0 0 0] ------- [3:0 1:0 30 1] [32 0] 0 0
r 5.396484910 _3_ AGT  --- 51 tcp 1040 [13a 3 1 800] ------- [1:0 3:0 30 3] [33 0] 1 0
s 5.396484910 _3_ AGT  --- 82 ack 40 [0 0 0 0] ------- [3:0 1:0 32 0] [33 0] 0 0
r 5.396484910 _3_ RTR  --- 82 ack 40 [0 0 0 0] ------- [3:0 1:0 32 0] [33 0] 0 0
s 5.396484910 _3_ RTR  --- 82 ack 40 [0 0 0 0] ------- [3:0 1:0 30 1] [33 0] 0 0
r 5.398611043 _1_ AGT  --- 77 ack 40 [13a 1 3 800] ------- [3:0 1:0 30 1] [29 0] 1 0
s 5.398611043 _1_ AGT  --- 83 tcp 1040 [0 0 0 0] ------- [1:0 3:0 32 0] [49 0] 0 0
r 5.398611043 _1_ RTR  --- 83 tcp 1040 [0 0 0 0] ------- [1:0 3:0 32 0] [49 0] 0 0
s 5.398611043 _1_ RTR  --- 83 tcp 1040 [0 0 0 0] ------- [1:0 3:0 30 3] [49 0] 0 0
r 5.400557889 _1_ AGT  --- 78 ack 40 [13a 1 3 800] ------- [3:0 1:0 30 1] [30 0] 1 0
s 5.400557889 _1_ AGT  --- 84 tcp 1040 [0 0 0 0] ------- [1:0 3:0 32 0] [50 0] 0 0
r 5.400557889 _1_ RTR  --- 84 tcp 1040 [0 0 0 0] ------- [1:0 3:0 32 0] [50 0] 0 0
s 5.400557889 _1_ RTR  --- 84 tcp 1040 [0 0 0 0] ------- [1:0 3:0 30 3] [50 0] 0 0
r 5.410544023 _3_ AGT  --- 52 tcp 1040 [13a 3 1 800] ------- [1:0 3:0 30 3] [34 0] 1 0
s 5.410544023 _3_ AGT  --- 85 ack 40 [0 0 0 0] ------- [3:0 1:0 32 0] [34 0] 0 0
r 5.410544023 _3_ RTR  --- 85 ack 40 [0 0 0 0] ------- [3:0 1:0 32 0] [34 0] 0 0
s 5.410544023 _3_ RTR  --- 85 ack 40 [0 0 0 0] ------- [3:0 1:0 30 1] [34 0] 0 0
r 5.422416873 _3_ AGT  --- 53 tcp 1040 [13a 3 1 800] ------- [1:0 3:0 30 3] [35 0] 1 0
s 5.422416873 _3_ AGT  --- 86 ack 40 [0 0 0 0] ------- [3:0 1:0 32 0] [35 0] 0 0
r 5.422416873 _3_ RTR  --- 86 ack 40 [0 0 0 0] ------- [3:0 1:0 32 0] [35 0] 0 0
s 5.422416873 _3_ RTR  --- 86 ack 40 [0 0 0 0] ------- [3:0 1:0 30 1] [35 0] 0 0
r 5.432543726 _3_ AGT  --- 54 tcp 1040 [13a 3 1 800] ------- [1:0 3:0 30 3] [36 0] 1 0
s 5.432543726 _3_ AGT  --- 87 ack 40 [0 0 0 0] ------- [3:0 1:0 32 0] [36 0] 0 0
r 5.432543726 _3_ RTR  --- 87 ack 40 [0 0 0 0] ------- [3:0 1:0 32 0] [36 0] 0 0
s 5.432543726 _3_ RTR  --- 87 ack 40 [0 0 0 0] ------- [3:0 1:0 30 1] [36 0] 0 0
r 5.434449868 _1_ AGT  --- 80 ack 40 [13a 1 3 800] ------- [3:0 1:0 30 1] [31 0] 1 0
s 5.434449868 _1_ AGT  --- 88 tcp 1040 [0 0 0 0] ------- [1:0 3:0 32 0] [51 0] 0 0
r 5.434449868 _1_ RTR  --- 88 tcp 1040 [0 0 0 0] ------- [1:0 3:0 32 0] [51 0] 0 0
s 5.434449868 _1_ RTR  --- 88 tcp 1040 [0 0 0 0] ------- [1:0 3:0 30 3] [51 0] 0 0
r 5.444496010 _3_ AGT  --- 56 tcp 1040 [13a 3 1 800] ------- [1:0 3:0 30 3] [37 0] 1 0
s 5.444496010 _3_ AGT  --- 89 ack 40 [0 0 0 0] ------- [3:0 1:0 32 0] [37 0] 0 0
r 5.444496010 _3_ RTR  --- 89 ack 40 [0 0 0 0] ------- [3:0 1:0 32 0] [37 0] 0 0
s 5.444496010 _3_ RTR  --- 89 ack 40 [0 0 0 0] ------- [3:0 1:0 30 1] [37 0] 0 0
r 5.454362870 _3_ AGT  --- 57 tcp 1040 [13a 3 1 800] ------- [1:0 3:0 30 3] [38 0] 1 0
s 5.454362870 _3_ AGT  --- 90 ack 40 [0 0 0 0] ------- [3:0 1:0 32 0] [38 0] 0 0
r 5.454362870 _3_ RTR  --- 90 ack 40 [0 0 0 0] ------- [3:0 1:0 32 0] [38 0] 0 0
s 5.454362870 _3_ RTR  --- 90 ack 40 [0 0 0 0] ------- [3:0 1:0 30 1] [38 0] 0 0
r 5.456269018 _1_ AGT  --- 81 ack 40 [13a 1 3 800] ------- [3:0 1:0 30 1] [32 0] 1 0
s 5.456269018 _1_ AGT  --- 91 tcp 1040 [0 0 0 0] ------- [1:0 3:0 32 0] [52 0] 0 0
r 5.456269018 _1_ RTR  --- 91 tcp 1040 [0 0 0 0] ------- [1:0 3:0 32 0] [52 0] 0 0
s 5.456269018 _1_ RTR  --- 91 tcp 1040 [0 0 0 0] ------- [1:0 3:0 30 3] [52 0] 0 0
r 5.458315882 _1_ AGT  --- 82 ack 40 [13a 1 3 800] ------- [3:0 1:0 30 1] [33 0] 1 0
s 5.458315882 _1_ AGT  --- 92 tcp 1040 [0 0 0 0] ------- [1:0 3:0 32 0] [53 0] 0 0
r 5.458315882 _1_ RTR  --- 92 tcp 1040 [0 0 0 0] ------- [1:0 3:0 32 0] [53 0] 0 0
s 5.458315882 _1_ RTR  --- 92 tcp 1040 [0 0 0 0] ------- [1:0 3:0 30 3] [53 0] 0 0
r 5.460322746 _1_ AGT  --- 85 ack 40 [13a 1 3 800] ------- [3:0 1:0 30 1] [34 0] 1 0
s 5.460322746 _1_ AGT  --- 93 tcp 1040 [0 0 0 0] ------- [1:0 3:0 32 0] [54 0] 0 0