+ 0.5 1 2 tcp 40 ------- 1 1.0 3.0 0 0
- 0.5 1 2 tcp 40 ------- 1 1.0 3.0 0 0
r 0.51032 1 2 tcp 40 ------- 1 1.0 3.0 0 0
+ 0.51032 2 3 tcp 40 ------- 1 1.0 3.0 0 0
- 0.51032 2 3 tcp 40 ------- 1 1.0 3.0 0 0
r 0.52064 2 3 tcp 40 ------- 1 1.0 3.0 0 0
+ 0.52064 3 2 ack 40 ------- 1 3.0 1.0 0 1
- 0.52064 3 2 ack 40 ------- 1 3.0 1.0 0 1
r 0.53096 3 2 ack 40 ------- 1 3.0 1.0 0 1
+ 0.53096 2 1 ack 40 ------- 1 3.0 1.0 0 1
- 0.53096 2 1 ack 40 ------- 1 3.0 1.0 0 1
r 0.54128 2 1 ack 40 ------- 1 3.0 1.0 0 1
+ 0.54128 1 2 tcp 1040 ------- 1 1.0 3.0 1 2
- 0.54128 1 2 tcp 1040 ------- 1 1.0 3.0 1 2
+ 0.54128 1 2 tcp 1040 ------- 1 1.0 3.0 2 3
- 0.5496 1 2 tcp 1040 ------- 1 1.0 3.0 2 3
r 0.5596 1 2 tcp 1040 ------- 1 1.0 3.0 1 2
+ 0.5596 2 3 tcp 1040 ------- 1 1.0 3.0 1 2
- 0.5596 2 3 tcp 1040 ------- 1 1.0 3.0 1 2
r 0.56792 1 2 tcp 1040 ------- 1 1.0 3.0 2 3
+ 0.56792 2 3 tcp 1040 ------- 1 1.0 3.0 2 3
- 0.56792 2 3 tcp 1040 ------- 1 1.0 3.0 2 3
r 0.57792 2 3 tcp 1040 ------- 1 1.0 3.0 1 2
+ 0.57792 3 2 ack 40 ------- 1 3.0 1.0 1 4
- 0.57792 3 2 ack 40 ------- 1 3.0 1.0 1 4
r 0.58624 2 3 tcp 1040 ------- 1 1.0 3.0 2 3
+ 0.58624 3 2 ack 40 ------- 1 3.0 1.0 2 5
- 0.58624 3 2 ack 40 ------- 1 3.0 1.0 2 5
r 0.58824 3 2 ack 40 ------- 1 3.0 1.0 1 4
+ 0.58824 2 1 ack 40 ------- 1 3.0 1.0 1 4
- 0.58824 2 1 ack 40 ------- 1 3.0 1.0 1 4
r 0.59656 3 2 ack 40 ------- 1 3.0 1.0 2 5
+ 0.59656 2 1 ack 40 ------- 1 3.0 1.0 2 5
- 0.59656 2 1 ack 40 ------- 1 3.0 1.0 2 5
r 0.59856 2 1 ack 40 ------- 1 3.0 1.0 1 4
+ 0.59856 1 2 tcp 1040 ------- 1 1.0 3.0 3 6
- 0.59856 1 2 tcp 1040 ------- 1 1.0 3.0 3 6
+ 0.59856 1 2 tcp 1040 ------- 1 1.0 3.0 4 7
r 0.60688 2 1 ack 40 ------- 1 3.0 1.0 2 5
+ 0.60688 1 2 tcp 1040 ------- 1 1.0 3.0 5 8
+ 0.60688 1 2 tcp 1040 ------- 1 1.0 3.0 6 9
- 0.60688 1 2 tcp 1040 ------- 1 1.0 3.0 4 7
- 0.6152 1 2 tcp 1040 ------- 1 1.0 3.0 5 8
r 0.61688 1 2 tcp 1040 ------- 1 1.0 3.0 3 6
+ 0.61688 2 3 tcp 1040 ------- 1 1.0 3.0 3 6
- 0.61688 2 3 tcp 1040 ------- 1 1.0 3.0 3 6
- 0.62352 1 2 tcp 1040 ------- 1 1.0 3.0 6 9
r 0.6252 1 2 tcp 1040 ------- 1 1.0 3.0 4 7
+ 0.6252 2 3 tcp 1040 ------- 1 1.0 3.0 4 7
- 0.6252 2 3 tcp 1040 ------- 1 1.0 3.0 4 7
r 0.63352 1 2 tcp 1040 ------- 1 1.0 3.0 5 8
+ 0.63352 2 3 tcp 1040 ------- 1 1.0 3.0 5 8
- 0.63352 2 3 tcp 1040 ------- 1 1.0 3.0 5 8
r 0.6352 2 3 tcp 1040 ------- 1 1.0 3.0 3 6
+ 0.6352 3 2 ack 40 ------- 1 3.0 1.0 3 10
- 0.6352 3 2 ack 40 ------- 1 3.0 1.0 3 10
r 0.64184 1 2 tcp 1040 ------- 1 1.0 3.0 6 9
+ 0.64184 2 3 tcp 1040 ------- 1 1.0 3.0 6 9
- 0.64184 2 3 tcp 1040 ------- 1 1.0 3.0 6 9
r 0.64352 2 3 tcp 1040 ------- 1 1.0 3.0 4 7
+ 0.64352 3 2 ack 40 ------- 1 3.0 1.0 4 11
- 0.64352 3 2 ack 40 ------- 1 3.0 1.0 4 11
r 0.64552 3 2 ack 40 ------- 1 3.0 1.0 3 10
+ 0.64552 2 1 ack 40 ------- 1 3.0 1.0 3 10
- 0.64552 2 1 ack 40 ------- 1 3.0 1.0 3 10
r 0.65184 2 3 tcp 1040 ------- 1 1.0 3.0 5 8
+ 0.65184 3 2 ack 40 ------- 1 3.0 1.0 5 12
- 0.65184 3 2 ack 40 ------- 1 3.0 1.0 5 12
r 0.65384 3 2 ack 40 ------- 1 3.0 1.0 4 11
+ 0.65384 2 1 ack 40 ------- 1 3.0 1.0 4 11
- 0.65384 2 1 ack 40 ------- 1 3.0 1.0 4 11
r 0.65584 2 1 ack 40 ------- 1 3.0 1.0 3 10
+ 0.65584 1 2 tcp 1040 ------- 1 1.0 3.0 7 13
- 0.65584 1 2 tcp 1040 ------- 1 1.0 3.0 7 13
+ 0.65584 1 2 tcp 1040 ------- 1 1.0 3.0 8 14
r 0.66016 2 3 tcp 1040 ------- 1 1.0 3.0 6 9
+ 0.66016 3 2 ack 40 ------- 1 3.0 1.0 6 15
- 0.66016 3 2 ack 40 ------- 1 3.0 1.0 6 15
r 0.66216 3 2 ack 40 ------- 1 3.0 1.0 5 12
+ 0.66216 2 1 ack 40 ------- 1 3.0 1.0 5 12
- 0.66216 2 1 ack 40 ------- 1 3.0 1.0 5 12
r 0.66416 2 1 ack 40 ------- 1 3.0 1.0 4 11
+ 0.66416 1 2 tcp 1040 ------- 1 1.0 3.0 9 16
+ 0.66416 1 2 tcp 1040 ------- 1 1.0 3.0 10 17
- 0.66416 1 2 tcp 1040 ------- 1 1.0 3.0 8 14
r 0.67048 3 2 ack 40 ------- 1 3.0 1.0 6 15
+ 0.67048 2 1 ack 40 ------- 1 3.0 1.0 6 15
- 0.67048 2 1 ack 40 ------- 1 3.0 1.0 6 15
r 0.67248 2 1 ack 40 ------- 1 3.0 1.0 5 12
+ 0.67248 1 2 tcp 1040 ------- 1 1.0 3.0 11 18
+ 0.67248 1 2 tcp 1040 ------- 1 1.0 3.0 12 19
- 0.67248 1 2 tcp 1040 ------- 1 1.0 3.0 9 16
r 0.67416 1 2 tcp 1040 ------- 1 1.0 3.0 7 13
+ 0.67416 2 3 tcp 1040 ------- 1 1.0 3.0 7 13
- 0.67416 2 3 tcp 1040 ------- 1 1.0 3.0 7 13
r 0.6808 2 1 ack 40 ------- 1 3.0 1.0 6 15
+ 0.6808 1 2 tcp 1040 ------- 1 1.0 3.0 13 20
+ 0.6808 1 2 tcp 1040 ------- 1 1.0 3.0 14 21
- 0.6808 1 2 tcp 1040 ------- 1 1.0 3.0 10 17
r 0.68248 1 2 tcp 1040 ------- 1 1.0 3.0 8 14
+ 0.68248 2 3 tcp 1040 ------- 1 1.0 3.0 8 14
- 0.68248 2 3 tcp 1040 ------- 1 1.0 3.0 8 14
- 0.68912 1 2 tcp 1040 ------- 1 1.0 3.0 11 18
r 0.6908 1 2 tcp 1040 ------- 1 1.0 3.0 9 16
+ 0.6908 2 3 tcp 1040 ------- 1 1.0 3.0 9 16
- 0.6908 2 3 tcp 1040 ------- 1 1.0 3.0 9 16
r 0.69248 2 3 tcp 1040 ------- 1 1.0 3.0 7 13
+ 0.69248 3 2 ack 40 ------- 1 3.0 1.0 7 22
- 0.69248 3 2 ack 40 ------- 1 3.0 1.0 7 22
- 0.69744 1 2 tcp 1040 ------- 1 1.0 3.0 12 19
r 0.69912 1 2 tcp 1040 ------- 1 1.0 3.0 10 17
+ 0.69912 2 3 tcp 1040 ------- 1 1.0 3.0 10 17
- 0.69912 2 3 tcp 1040 ------- 1 1.0 3.0 10 17
r 0.7008 2 3 tcp 1040 ------- 1 1.0 3.0 8 14
+ 0.7008 3 2 ack 40 ------- 1 3.0 1.0 8 23
- 0.7008 3 2 ack 40 ------- 1 3.0 1.0 8 23
r 0.7028 3 2 ack 40 ------- 1 3.0 1.0 7 22
+ 0.7028 2 1 ack 40 ------- 1 3.0 1.0 7 22
- 0.7028 2 1 ack 40 ------- 1 3.0 1.0 7 22
- 0.70576 1 2 tcp 1040 ------- 1 1.0 3.0 13 20
r 0.70744 1 2 tcp 1040 ------- 1 1.0 3.0 11 18
+ 0.70744 2 3 tcp 1040 ------- 1 1.0 3.0 11 18
- 0.70744 2 3 tcp 1040 ------- 1 1.0 3.0 11 18
r 0.70912 2 3 tcp 1040 ------- 1 1.0 3.0 9 16
+ 0.70912 3 2 ack 40 ------- 1 3.0 1.0 9 24
- 0.70912 3 2 ack 40 ------- 1 3.0 1.0 9 24
r 0.71112 3 2 ack 40 ------- 1 3.0 1.0 8 23
+ 0.71112 2 1 ack 40 ------- 1 3.0 1.0 8 23
- 0.71112 2 1 ack 40 ------- 1 3.0 1.0 8 23
r 0.71312 2 1 ack 40 ------- 1 3.0 1.0 7 22
+ 0.71312 1 2 tcp 1040 ------- 1 1.0 3.0 15 25
+ 0.71312 1 2 tcp 1040 ------- 1 1.0 3.0 16 26
- 0.71408 1 2 tcp 1040 ------- 1 1.0 3.0 14 21
r 0.71576 1 2 tcp 1040 ------- 1 1.0 3.0 12 19
+ 0.71576 2 3 tcp 1040 ------- 1 1.0 3.0 12 19
- 0.71576 2 3 tcp 1040 ------- 1 1.0 3.0 12 19
r 0.71744 2 3 tcp 1040 ------- 1 1.0 3.0 10 17
+ 0.71744 3 2 ack 40 ------- 1 3.0 1.0 10 27
- 0.71744 3 2 ack 40 ------- 1 3.0 1.0 10 27
r 0.71944 3 2 ack 40 ------- 1 3.0 1.0 9 24
+ 0.71944 2 1 ack 40 ------- 1 3.0 1.0 9 24
- 0.71944 2 1 ack 40 ------- 1 3.0 1.0 9 24
r 0.72144 2 1 ack 40 ------- 1 3.0 1.0 8 23
+ 0.72144 1 2 tcp 1040 ------- 1 1.0 3.0 17 28
+ 0.72144 1 2 tcp 1040 ------- 1 1.0 3.0 18 29
- 0.7224 1 2 tcp 1040 ------- 1 1.0 3.0 15 25
r 0.72408 1 2 tcp 1040 ------- 1 1.0 3.0 13 20
+ 0.72408 2 3 tcp 1040 ------- 1 1.0 3.0 13 20
- 0.72408 2 3 tcp 1040 ------- 1 1.0 3.0 13 20
r 0.72576 2 3 tcp 1040 ------- 1 1.0 3.0 11 18
+ 0.72576 3 2 ack 40 ------- 1 3.0 1.0 11 30
- 0.72576 3 2 ack 40 ------- 1 3.0 1.0 11 30
r 0.72776 3 2 ack 40 ------- 1 3.0 1.0 10 27
+ 0.72776 2 1 ack 40 ------- 1 3.0 1.0 10 27
- 0.72776 2 1 ack 40 ------- 1 3.0 1.0 10 27
r 0.72976 2 1 ack 40 ------- 1 3.0 1.0 9 24
+ 0.72976 1 2 tcp 1040 ------- 1 1.0 3.0 19 31
+ 0.72976 1 2 tcp 1040 ------- 1 1.0 3.0 20 32
- 0.73072 1 2 tcp 1040 ------- 1 1.0 3.0 16 26
r 0.7324 1 2 tcp 1040 ------- 1 1.0 3.0 14 21
+ 0.7324 2 3 tcp 1040 ------- 1 1.0 3.0 14 21
- 0.7324 2 3 tcp 1040 ------- 1 1.0 3.0 14 21
r 0.73408 2 3 tcp 1040 ------- 1 1.0 3.0 12 19
+ 0.73408 3 2 ack 40 ------- 1 3.0 1.0 12 33
- 0.73408 3 2 ack 40 ------- 1 3.0 1.0 12 33
r 0.73608 3 2 ack 40 ------- 1 3.0 1.0 11 30
+ 0.73608 2 1 ack 40 ------- 1 3.0 1.0 11 30
- 0.73608 2 1 ack 40 ------- 1 3.0 1.0 11 30
r 0.73808 2 1 ack 40 ------- 1 3.0 1.0 10 27
+ 0.73808 1 2 tcp 1040 ------- 1 1.0 3.0 21 34
+ 0.73808 1 2 tcp 1040 ------- 1 1.0 3.0 22 35
- 0.73904 1 2 tcp 1040 ------- 1 1.0 3.0 17 28
r 0.74072 1 2 tcp 1040 ------- 1 1.0 3.0 15 25
+ 0.74072 2 3 tcp 1040 ------- 1 1.0 3.0 15 25
- 0.74072 2 3 tcp 1040 ------- 1 1.0 3.0 15 25
r 0.7424 2 3 tcp 1040 ------- 1 1.0 3.0 13 20
+ 0.7424 3 2 ack 40 ------- 1 3.0 1.0 13 36
- 0.7424 3 2 ack 40 ------- 1 3.0 1.0 13 36
r 0.7444 3 2 ack 40 ------- 1 3.0 1.0 12 33
+ 0.7444 2 1 ack 40 ------- 1 3.0 1.0 12 33
- 0.7444 2 1 ack 40 ------- 1 3.0 1.0 12 33
r 0.7464 2 1 ack 40 ------- 1 3.0 1.0 11 30
+ 0.7464 1 2 tcp 1040 ------- 1 1.0 3.0 23 37
+ 0.7464 1 2 tcp 1040 ------- 1 1.0 3.0 24 38
- 0.74736 1 2 tcp 1040 ------- 1 1.0 3.0 18 29
r 0.74904 1 2 tcp 1040 ------- 1 1.0 3.0 16 26
+ 0.74904 2 3 tcp 1040 ------- 1 1.0 3.0 16 26
- 0.74904 2 3 tcp 1040 ------- 1 1.0 3.0 16 26
r 0.75072 2 3 tcp 1040 ------- 1 1.0 3.0 14 21
+ 0.75072 3 2 ack 40 ------- 1 3.0 1.0 14 39
- 0.75072 3 2 ack 40 ------- 1 3.0 1.0 14 39
r 0.75272 3 2 ack 40 ------- 1 3.0 1.0 13 36
+ 0.75272 2 1 ack 40 ------- 1 3.0 1.0 13 36
- 0.75272 2 1 ack 40 ------- 1 3.0 1.0 13 36
r 0.75472 2 1 ack 40 ------- 1 3.0 1.0 12 33
+ 0.75472 1 2 tcp 1040 ------- 1 1.0 3.0 25 40
+ 0.75472 1 2 tcp 1040 ------- 1 1.0 3.0 26 41
- 0.75568 1 2 tcp 1040 ------- 1 1.0 3.0 19 31
r 0.75736 1 2 tcp 1040 ------- 1 1.0 3.0 17 28
+ 0.75736 2 3 tcp 1040 ------- 1 1.0 3.0 17 28
- 0.75736 2 3 tcp 1040 ------- 1 1.0 3.0 17 28
r 0.75904 2 3 tcp 1040 ------- 1 1.0 3.0 15 25
+ 0.75904 3 2 ack 40 ------- 1 3.0 1.0 15 42
- 0.75904 3 2 ack 40 ------- 1 3.0 1.0 15 42
r 0.76104 3 2 ack 40 ------- 1 3.0 1.0 14 39
+ 0.76104 2 1 ack 40 ------- 1 3.0 1.0 14 39
- 0.76104 2 1 ack 40 ------- 1 3.0 1.0 14 39
r 0.76304 2 1 ack 40 ------- 1 3.0 1.0 13 36
+ 0.76304 1 2 tcp 1040 ------- 1 1.0 3.0 27 43
- 0.764 1 2 tcp 1040 ------- 1 1.0 3.0 20 32
r 0.76568 1 2 tcp 1040 ------- 1 1.0 3.0 18 29
+ 0.76568 2 3 tcp 1040 ------- 1 1.0 3.0 18 29
- 0.76568 2 3 tcp 1040 ------- 1 1.0 3.0 18 29
r 0.76736 2 3 tcp 1040 ------- 1 1.0 3.0 16 26
+ 0.76736 3 2 ack 40 ------- 1 3.0 1.0 16 44
- 0.76736 3 2 ack 40 ------- 1 3.0 1.0 16 44
r 0.76936 3 2 ack 40 ------- 1 3.0 1.0 15 42
+ 0.76936 2 1 ack 40 ------- 1 3.0 1.0 15 42
- 0.76936 2 1 ack 40 ------- 1 3.0 1.0 15 42
+ 0.77 1 2 tcp 1040 ------- 1 1.0 3.0 28 45
r 0.77136 2 1 ack 40 ------- 1 3.0 1.0 14 39
- 0.77232 1 2 tcp 1040 ------- 1 1.0 3.0 21 34
r 0.774 1 2 tcp 1040 ------- 1 1.0 3.0 19 31
+ 0.774 2 3 tcp 1040 ------- 1 1.0 3.0 19 31
- 0.774 2 3 tcp 1040 ------- 1 1.0 3.0 19 31
r 0.77568 2 3 tcp 1040 ------- 1 1.0 3.0 17 28
+ 0.77568 3 2 ack 40 ------- 1 3.0 1.0 17 46
- 0.77568 3 2 ack 40 ------- 1 3.0 1.0 17 46
r 0.77768 3 2 ack 40 ------- 1 3.0 1.0 16 44
+ 0.77768 2 1 ack 40 ------- 1 3.0 1.0 16 44
- 0.77768 2 1 ack 40 ------- 1 3.0 1.0 16 44
r 0.77968 2 1 ack 40 ------- 1 3.0 1.0 15 42
+ 0.78 1 2 tcp 1040 ------- 1 1.0 3.0 29 47
- 0.78064 1 2 tcp 1040 ------- 1 1.0 3.0 22 35
r 0.78232 1 2 tcp 1040 ------- 1 1.0 3.0 20 32
+ 0.78232 2 3 tcp 1040 ------- 1 1.0 3.0 20 32
- 0.78232 2 3 tcp 1040 ------- 1 1.0 3.0 20 32
r 0.784 2 3 tcp 1040 ------- 1 1.0 3.0 18 29
+ 0.784 3 2 ack 40 ------- 1 3.0 1.0 18 48
- 0.784 3 2 ack 40 ------- 1 3.0 1.0 18 48
r 0.786 3 2 ack 40 ------- 1 3.0 1.0 17 46
+ 0.786 2 1 ack 40 ------- 1 3.0 1.0 17 46
- 0.786 2 1 ack 40 ------- 1 3.0 1.0 17 46
r 0.788 2 1 ack 40 ------- 1 3.0 1.0 16 44
- 0.78896 1 2 tcp 1040 ------- 1 1.0 3.0 23 37
+ 0.79 1 2 tcp 1040 ------- 1 1.0 3.0 30 49
r 0.79064 1 2 tcp 1040 ------- 1 1.0 3.0 21 34
+ 0.79064 2 3 tcp 1040 ------- 1 1.0 3.0 21 34
- 0.79064 2 3 tcp 1040 ------- 1 1.0 3.0 21 34
r 0.79232 2 3 tcp 1040 ------- 1 1.0 3.0 19 31
+ 0.79232 3 2 ack 40 ------- 1 3.0 1.0 19 50
- 0.79232 3 2 ack 40 ------- 1 3.0 1.0 19 50
r 0.79432 3 2 ack 40 ------- 1 3.0 1.0 18 48
+ 0.79432 2 1 ack 40 ------- 1 3.0 1.0 18 48
- 0.79432 2 1 ack 40 ------- 1 3.0 1.0 18 48
r 0.79632 2 1 ack 40 ------- 1 3.0 1.0 17 46
- 0.79728 1 2 tcp 1040 ------- 1 1.0 3.0 24 38
r 0.79896 1 2 tcp 1040 ------- 1 1.0 3.0 22 35
+ 0.79896 2 3 tcp 1040 ------- 1 1.0 3.0 22 35
- 0.79896 2 3 tcp 1040 ------- 1 1.0 3.0 22 35
+ 0.8 1 2 tcp 1040 ------- 1 1.0 3.0 31 51
r 0.80064 2 3 tcp 1040 ------- 1 1.0 3.0 20 32
+ 0.80064 3 2 ack 40 ------- 1 3.0 1.0 20 52
- 0.80064 3 2 ack 40 ------- 1 3.0 1.0 20 52
r 0.80264 3 2 ack 40 ------- 1 3.0 1.0 19 50
+ 0.80264 2 1 ack 40 ------- 1 3.0 1.0 19 50
- 0.80264 2 1 ack 40 ------- 1 3.0 1.0 19 50
r 0.80464 2 1 ack 40 ------- 1 3.0 1.0 18 48
- 0.8056 1 2 tcp 1040 ------- 1 1.0 3.0 25 40
r 0.80728 1 2 tcp 1040 ------- 1 1.0 3.0 23 37
+ 0.80728 2 3 tcp 1040 ------- 1 1.0 3.0 23 37
- 0.80728 2 3 tcp 1040 ------- 1 1.0 3.0 23 37
r 0.80896 2 3 tcp 1040 ------- 1 1.0 3.0 21 34
+ 0.80896 3 2 ack 40 ------- 1 3.0 1.0 21 53
- 0.80896 3 2 ack 40 ------- 1 3.0 1.0 21 53
+ 0.81 1 2 tcp 1040 ------- 1 1.0 3.0 32 54
r 0.81096 3 2 ack 40 ------- 1 3.0 1.0 20 52
+ 0.81096 2 1 ack 40 ------- 1 3.0 1.0 20 52
- 0.81096 2 1 ack 40 ------- 1 3.0 1.0 20 52
r 0.81296 2 1 ack 40 ------- 1 3.0 1.0 19 50
- 0.81392 1 2 tcp 1040 ------- 1 1.0 3.0 26 41
r 0.8156 1 2 tcp 1040 ------- 1 1.0 3.0 24 38
+ 0.8156 2 3 tcp 1040 ------- 1 1.0 3.0 24 38
- 0.8156 2 3 tcp 1040 ------- 1 1.0 3.0 24 38
r 0.81728 2 3 tcp 1040 ------- 1 1.0 3.0 22 35
+ 0.81728 3 2 ack 40 ------- 1 3.0 1.0 22 55
- 0.81728 3 2 ack 40 ------- 1 3.0 1.0 22 55
r 0.81928 3 2 ack 40 ------- 1 3.0 1.0 21 53
+ 0.81928 2 1 ack 40 ------- 1 3.0 1.0 21 53
- 0.81928 2 1 ack 40 ------- 1 3.0 1.0 21 53
+ 0.82 1 2 tcp 1040 ------- 1 1.0 3.0 33 56
r 0.82128 2 1 ack 40 ------- 1 3.0 1.0 20 52
- 0.82224 1 2 tcp 1040 ------- 1 1.0 3.0 27 43
r 0.82392 1 2 tcp 1040 ------- 1 1.0 3.0 25 40
+ 0.82392 2 3 tcp 1040 ------- 1 1.0 3.0 25 40
- 0.82392 2 3 tcp 1040 ------- 1 1.0 3.0 25 40
r 0.8256 2 3 tcp 1040 ------- 1 1.0 3.0 23 37
+ 0.8256 3 2 ack 40 ------- 1 3.0 1.0 23 57
- 0.8256 3 2 ack 40 ------- 1 3.0 1.0 23 57
r 0.8276 3 2 ack 40 ------- 1 3.0 1.0 22 55
+ 0.8276 2 1 ack 40 ------- 1 3.0 1.0 22 55
- 0.8276 2 1 ack 40 ------- 1 3.0 1.0 22 55
r 0.8296 2 1 ack 40 ------- 1 3.0 1.0 21 53
+ 0.83 1 2 tcp 1040 ------- 1 1.0 3.0 34 58
- 0.83056 1 2 tcp 1040 ------- 1 1.0 3.0 28 45
r 0.83224 1 2 tcp 1040 ------- 1 1.0 3.0 26 41
+ 0.83224 2 3 tcp 1040 ------- 1 1.0 3.0 26 41
- 0.83224 2 3 tcp 1040 ------- 1 1.0 3.0 26 41
r 0.83392 2 3 tcp 1040 ------- 1 1.0 3.0 24 38
+ 0.83392 3 2 ack 40 ------- 1 3.0 1.0 24 59
- 0.83392 3 2 ack 40 ------- 1 3.0 1.0 24 59
r 0.83592 3 2 ack 40 ------- 1 3.0 1.0 23 57
+ 0.83592 2 1 ack 40 ------- 1 3.0 1.0 23 57
- 0.83592 2 1 ack 40 ------- 1 3.0 1.0 23 57
r 0.83792 2 1 ack 40 ------- 1 3.0 1.0 22 55
- 0.83888 1 2 tcp 1040 ------- 1 1.0 3.0 29 47
+ 0.84 1 2 tcp 1040 ------- 1 1.0 3.0 35 60
r 0.84056 1 2 tcp 1040 ------- 1 1.0 3.0 27 43
+ 0.84056 2 3 tcp 1040 ------- 1 1.0 3.0 27 43
- 0.84056 2 3 tcp 1040 ------- 1 1.0 3.0 27 43
r 0.84224 2 3 tcp 1040 ------- 1 1.0 3.0 25 40
+ 0.84224 3 2 ack 40 ------- 1 3.0 1.0 25 61
- 0.84224 3 2 ack 40 ------- 1 3.0 1.0 25 61
r 0.84424 3 2 ack 40 ------- 1 3.0 1.0 24 59
+ 0.84424 2 1 ack 40 ------- 1 3.0 1.0 24 59
- 0.84424 2 1 ack 40 ------- 1 3.0 1.0 24 59
r 0.84624 2 1 ack 40 ------- 1 3.0 1.0 23 57
- 0.8472 1 2 tcp 1040 ------- 1 1.0 3.0 30 49
r 0.84888 1 2 tcp 1040 ------- 1 1.0 3.0 28 45
+ 0.84888 2 3 tcp 1040 ------- 1 1.0 3.0 28 45
- 0.84888 2 3 tcp 1040 ------- 1 1.0 3.0 28 45
+ 0.85 1 2 tcp 1040 ------- 1 1.0 3.0 36 62
r 0.85056 2 3 tcp 1040 ------- 1 1.0 3.0 26 41
+ 0.85056 3 2 ack 40 ------- 1 3.0 1.0 26 63
- 0.85056 3 2 ack 40 ------- 1 3.0 1.0 26 63
r 0.85256 3 2 ack 40 ------- 1 3.0 1.0 25 61
+ 0.85256 2 1 ack 40 ------- 1 3.0 1.0 25 61
- 0.85256 2 1 ack 40 ------- 1 3.0 1.0 25 61
r 0.85456 2 1 ack 40 ------- 1 3.0 1.0 24 59
- 0.85552 1 2 tcp 1040 ------- 1 1.0 3.0 31 51
r 0.8572 1 2 tcp 1040 ------- 1 1.0 3.0 29 47
+ 0.8572 2 3 tcp 1040 ------- 1 1.0 3.0 29 47
- 0.8572 2 3 tcp 1040 ------- 1 1.0 3.0 29 47
r 0.85888 2 3 tcp 1040 ------- 1 1.0 3.0 27 43
+ 0.85888 3 2 ack 40 ------- 1 3.0 1.0 27 64
- 0.85888 3 2 ack 40 ------- 1 3.0 1.0 27 64
+ 0.86 1 2 tcp 1040 ------- 1 1.0 3.0 37 65
r 0.86088 3 2 ack 40 ------- 1 3.0 1.0 26 63
+ 0.86088 2 1 ack 40 ------- 1 3.0 1.0 26 63
- 0.86088 2 1 ack 40 ------- 1 3.0 1.0 26 63
r 0.86288 2 1 ack 40 ------- 1 3.0 1.0 25 61
- 0.86384 1 2 tcp 1040 ------- 1 1.0 3.0 32 54
r 0.86552 1 2 tcp 1040 ------- 1 1.0 3.0 30 49
+ 0.86552 2 3 tcp 1040 ------- 1 1.0 3.0 30 49
- 0.86552 2 3 tcp 1040 ------- 1 1.0 3.0 30 49
r 0.8672 2 3 tcp 1040 ------- 1 1.0 3.0 28 45
+ 0.8672 3 2 ack 40 ------- 1 3.0 1.0 28 66
- 0.8672 3 2 ack 40 ------- 1 3.0 1.0 28 66
r 0.8692 3 2 ack 40 ------- 1 3.0 1.0 27 64
+ 0.8692 2 1 ack 40 ------- 1 3.0 1.0 27 64
- 0.8692 2 1 ack 40 ------- 1 3.0 1.0 27 64
+ 0.87 1 2 tcp 1040 ------- 1 1.0 3.0 38 67
r 0.8712 2 1 ack 40 ------- 1 3.0 1.0 26 63
- 0.87216 1 2 tcp 1040 ------- 1 1.0 3.0 33 56
r 0.87384 1 2 tcp 1040 ------- 1 1.0 3.0 31 51
+ 0.87384 2 3 tcp 1040 ------- 1 1.0 3.0 31 51
- 0.87384 2 3 tcp 1040 ------- 1 1.0 3.0 31 51
r 0.87552 2 3 tcp 1040 ------- 1 1.0 3.0 29 47
+ 0.87552 3 2 ack 40 ------- 1 3.0 1.0 29 68
- 0.87552 3 2 ack 40 ------- 1 3.0 1.0 29 68
r 0.87752 3 2 ack 40 ------- 1 3.0 1.0 28 66
+ 0.87752 2 1 ack 40 ------- 1 3.0 1.0 28 66
- 0.87752 2 1 ack 40 ------- 1 3.0 1.0 28 66
r 0.87952 2 1 ack 40 ------- 1 3.0 1.0 27 64
+ 0.88 1 2 tcp 1040 ------- 1 1.0 3.0 39 69
- 0.88048 1 2 tcp 1040 ------- 1 1.0 3.0 34 58
r 0.88216 1 2 tcp 1040 ------- 1 1.0 3.0 32 54
+ 0.88216 2 3 tcp 1040 ------- 1 1.0 3.0 32 54
- 0.88216 2 3 tcp 1040 ------- 1 1.0 3.0 32 54
r 0.88384 2 3 tcp 1040 ------- 1 1.0 3.0 30 49
+ 0.88384 3 2 ack 40 ------- 1 3.0 1.0 30 70
- 0.88384 3 2 ack 40 ------- 1 3.0 1.0 30 70
r 0.88584 3 2 ack 40 ------- 1 3.0 1.0 29 68
+ 0.88584 2 1 ack 40 ------- 1 3.0 1.0 29 68
- 0.88584 2 1 ack 40 ------- 1 3.0 1.0 29 68
r 0.88784 2 1 ack 40 ------- 1 3.0 1.0 28 66
- 0.8888 1 2 tcp 1040 ------- 1 1.0 3.0 35 60
+ 0.89 1 2 tcp 1040 ------- 1 1.0 3.0 40 71
r 0.89048 1 2 tcp 1040 ------- 1 1.0 3.0 33 56
+ 0.89048 2 3 tcp 1040 ------- 1 1.0 3.0 33 56
- 0.89048 2 3 tcp 1040 ------- 1 1.0 3.0 33 56
r 0.89216 2 3 tcp 1040 ------- 1 1.0 3.0 31 51
+ 0.89216 3 2 ack 40 ------- 1 3.0 1.0 31 72
- 0.89216 3 2 ack 40 ------- 1 3.0 1.0 31 72
r 0.89416 3 2 ack 40 ------- 1 3.0 1.0 30 70
+ 0.89416 2 1 ack 40 ------- 1 3.0 1.0 30 70
- 0.89416 2 1 ack 40 ------- 1 3.0 1.0 30 70
r 0.89616 2 1 ack 40 ------- 1 3.0 1.0 29 68
- 0.89712 1 2 tcp 1040 ------- 1 1.0 3.0 36 62
r 0.8988 1 2 tcp 1040 ------- 1 1.0 3.0 34 58
+ 0.8988 2 3 tcp 1040 ------- 1 1.0 3.0 34 58
- 0.8988 2 3 tcp 1040 ------- 1 1.0 3.0 34 58
+ 0.9 1 2 tcp 1040 ------- 1 1.0 3.0 41 73
r 0.90048 2 3 tcp 1040 ------- 1 1.0 3.0 32 54
+ 0.90048 3 2 ack 40 ------- 1 3.0 1.0 32 74
- 0.90048 3 2 ack 40 ------- 1 3.0 1.0 32 74
r 0.90248 3 2 ack 40 ------- 1 3.0 1.0 31 72
+ 0.90248 2 1 ack 40 ------- 1 3.0 1.0 31 72
- 0.90248 2 1 ack 40 ------- 1 3.0 1.0 31 72
r 0.90448 2 1 ack 40 ------- 1 3.0 1.0 30 70
- 0.90544 1 2 tcp 1040 ------- 1 1.0 3.0 37 65
r 0.90712 1 2 tcp 1040 ------- 1 1.0 3.0 35 60
+ 0.90712 2 3 tcp 1040 ------- 1 1.0 3.0 35 60
- 0.90712 2 3 tcp 1040 ------- 1 1.0 3.0 35 60
r 0.9088 2 3 tcp 1040 ------- 1 1.0 3.0 33 56
+ 0.9088 3 2 ack 40 ------- 1 3.0 1.0 33 75
- 0.9088 3 2 ack 40 ------- 1 3.0 1.0 33 75
+ 0.91 1 2 tcp 1040 ------- 1 1.0 3.0 42 76
r 0.9108 3 2 ack 40 ------- 1 3.0 1.0 32 74
+ 0.9108 2 1 ack 40 ------- 1 3.0 1.0 32 74
- 0.9108 2 1 ack 40 ------- 1 3.0 1.0 32 74
r 0.9128 2 1 ack 40 ------- 1 3.0 1.0 31 72
- 0.91376 1 2 tcp 1040 ------- 1 1.0 3.0 38 67
r 0.91544 1 2 tcp 1040 ------- 1 1.0 3.0 36 62
+ 0.91544 2 3 tcp 1040 ------- 1 1.0 3.0 36 62
- 0.91544 2 3 tcp 1040 ------- 1 1.0 3.0 36 62
r 0.91712 2 3 tcp 1040 ------- 1 1.0 3.0 34 58
+ 0.91712 3 2 ack 40 ------- 1 3.0 1.0 34 77
- 0.91712 3 2 ack 40 ------- 1 3.0 1.0 34 77
r 0.91912 3 2 ack 40 ------- 1 3.0 1.0 33 75
+ 0.91912 2 1 ack 40 ------- 1 3.0 1.0 33 75
- 0.91912 2 1 ack 40 ------- 1 3.0 1.0 33 75
+ 0.92 1 2 tcp 1040 ------- 1 1.0 3.0 43 78
r 0.92112 2 1 ack 40 ------- 1 3.0 1.0 32 74
- 0.92208 1 2 tcp 1040 ------- 1 1.0 3.0 39 69
r 0.92376 1 2 tcp 1040 ------- 1 1.0 3.0 37 65
+ 0.92376 2 3 tcp 1040 ------- 1 1.0 3.0 37 65
- 0.92376 2 3 tcp 1040 ------- 1 1.0 3.0 37 65
r 0.92544 2 3 tcp 1040 ------- 1 1.0 3.0 35 60
+ 0.92544 3 2 ack 40 ------- 1 3.0 1.0 35 79
- 0.92544 3 2 ack 40 ------- 1 3.0 1.0 35 79
r 0.92744 3 2 ack 40 ------- 1 3.0 1.0 34 77
+ 0.92744 2 1 ack 40 ------- 1 3.0 1.0 34 77
- 0.92744 2 1 ack 40 ------- 1 3.0 1.0 34 77
r 0.92944 2 1 ack 40 ------- 1 3.0 1.0 33 75
+ 0.93 1 2 tcp 1040 ------- 1 1.0 3.0 44 80
- 0.9304 1 2 tcp 1040 ------- 1 1.0 3.0 40 71
r 0.93208 1 2 tcp 1040 ------- 1 1.0 3.0 38 67
+ 0.93208 2 3 tcp 1040 ------- 1 1.0 3.0 38 67
- 0.93208 2 3 tcp 1040 ------- 1 1.0 3.0 38 67
r 0.93376 2 3 tcp 1040 ------- 1 1.0 3.0 36 62
+ 0.93376 3 2 ack 40 ------- 1 3.0 1.0 36 81
- 0.93376 3 2 ack 40 ------- 1 3.0 1.0 36 81
r 0.93576 3 2 ack 40 ------- 1 3.0 1.0 35 79
+ 0.93576 2 1 ack 40 ------- 1 3.0 1.0 35 79
- 0.93576 2 1 ack 40 ------- 1 3.0 1.0 35 79
r 0.93776 2 1 ack 40 ------- 1 3.0 1.0 34 77
- 0.93872 1 2 tcp 1040 ------- 1 1.0 3.0 41 73
+ 0.94 1 2 tcp 1040 ------- 1 1.0 3.0 45 82
r 0.9404 1 2 tcp 1040 ------- 1 1.0 3.0 39 69
+ 0.9404 2 3 tcp 1040 ------- 1 1.0 3.0 39 69
- 0.9404 2 3 tcp 1040 ------- 1 1.0 3.0 39 69
r 0.94208 2 3 tcp 1040 ------- 1 1.0 3.0 37 65
+ 0.94208 3 2 ack 40 ------- 1 3.0 1.0 37 83
- 0.94208 3 2 ack 40 ------- 1 3.0 1.0 37 83
r 0.94408 3 2 ack 40 ------- 1 3.0 1.0 36 81
+ 0.94408 2 1 ack 40 ------- 1 3.0 1.0 36 81
- 0.94408 2 1 ack 40 ------- 1 3.0 1.0 36 81
r 0.94608 2 1 ack 40 ------- 1 3.0 1.0 35 79
- 0.94704 1 2 tcp 1040 ------- 1 1.0 3.0 42 76
r 0.94872 1 2 tcp 1040 ------- 1 1.0 3.0 40 71
+ 0.94872 2 3 tcp 1040 ------- 1 1.0 3.0 40 71
- 0.94872 2 3 tcp 1040 ------- 1 1.0 3.0 40 71
+ 0.95 1 2 tcp 1040 ------- 1 1.0 3.0 46 84
r 0.9504 2 3 tcp 1040 ------- 1 1.0 3.0 38 67
+ 0.9504 3 2 ack 40 ------- 1 3.0 1.0 38 85
- 0.9504 3 2 ack 40 ------- 1 3.0 1.0 38 85
r 0.9524 3 2 ack 40 ------- 1 3.0 1.0 37 83
+ 0.9524 2 1 ack 40 ------- 1 3.0 1.0 37 83
- 0.9524 2 1 ack 40 ------- 1 3.0 1.0 37 83
r 0.9544 2 1 ack 40 ------- 1 3.0 1.0 36 81
- 0.95536 1 2 tcp 1040 ------- 1 1.0 3.0 43 78
r 0.95704 1 2 tcp 1040 ------- 1 1.0 3.0 41 73
+ 0.95704 2 3 tcp 1040 ------- 1 1.0 3.0 41 73
- 0.95704 2 3 tcp 1040 ------- 1 1.0 3.0 41 73
r 0.95872 2 3 tcp 1040 ------- 1 1.0 3.0 39 69
+ 0.95872 3 2 ack 40 ------- 1 3.0 1.0 39 86
- 0.95872 3 2 ack 40 ------- 1 3.0 1.0 39 86
+ 0.96 1 2 tcp 1040 ------- 1 1.0 3.0 47 87
r 0.96072 3 2 ack 40 ------- 1 3.0 1.0 38 85
+ 0.96072 2 1 ack 40 ------- 1 3.0 1.0 38 85
- 0.96072 2 1 ack 40 ------- 1 3.0 1.0 38 85
r 0.96272 2 1 ack 40 ------- 1 3.0 1.0 37 83
- 0.96368 1 2 tcp 1040 ------- 1 1.0 3.0 44 80
r 0.96536 1 2 tcp 1040 ------- 1 1.0 3.0 42 76
+ 0.96536 2 3 tcp 1040 ------- 1 1.0 3.0 42 76
- 0.96536 2 3 tcp 1040 ------- 1 1.0 3.0 42 76
r 0.96704 2 3 tcp 1040 ------- 1 1.0 3.0 40 71
+ 0.96704 3 2 ack 40 ------- 1 3.0 1.0 40 88
- 0.96704 3 2 ack 40 ------- 1 3.0 1.0 40 88
r 0.96904 3 2 ack 40 ------- 1 3.0 1.0 39 86
+ 0.96904 2 1 ack 40 ------- 1 3.0 1.0 39 86
- 0.96904 2 1 ack 40 ------- 1 3.0 1.0 39 86
+ 0.97 1 2 tcp 1040 ------- 1 1.0 3.0 48 89
r 0.97104 2 1 ack 40 ------- 1 3.0 1.0 38 85
- 0.972 1 2 tcp 1040 ------- 1 1.0 3.0 45 82
r 0.97368 1 2 tcp 1040 ------- 1 1.0 3.0 43 78
+ 0.97368 2 3 tcp 1040 ------- 1 1.0 3.0 43 78
- 0.97368 2 3 tcp 1040 ------- 1 1.0 3.0 43 78
r 0.97536 2 3 tcp 1040 ------- 1 1.0 3.0 41 73
+ 0.97536 3 2 ack 40 ------- 1 3.0 1.0 41 90
- 0.97536 3 2 ack 40 ------- 1 3.0 1.0 41 90
r 0.97736 3 2 ack 40 ------- 1 3.0 1.0 40 88
+ 0.97736 2 1 ack 40 ------- 1 3.0 1.0 40 88
- 0.97736 2 1 ack 40 ------- 1 3.0 1.0 40 88
r 0.97936 2 1 ack 40 ------- 1 3.0 1.0 39 86
+ 0.98 1 2 tcp 1040 ------- 1 1.0 3.0 49 91
- 0.98032 1 2 tcp 1040 ------- 1 1.0 3.0 46 84
r 0.982 1 2 tcp 1040 ------- 1 1.0 3.0 44 80
+ 0.982 2 3 tcp 1040 ------- 1 1.0 3.0 44 80
- 0.982 2 3 tcp 1040 ------- 1 1.0 3.0 44 80
r 0.98368 2 3 tcp 1040 ------- 1 1.0 3.0 42 76
+ 0.98368 3 2 ack 40 ------- 1 3.0 1.0 42 92
- 0.98368 3 2 ack 40 ------- 1 3.0 1.0 42 92
r 0.98568 3 2 ack 40 ------- 1 3.0 1.0 41 90
+ 0.98568 2 1 ack 40 ------- 1 3.0 1.0 41 90
- 0.98568 2 1 ack 40 ------- 1 3.0 1.0 41 90
r 0.98768 2 1 ack 40 ------- 1 3.0 1.0 40 88
- 0.98864 1 2 tcp 1040 ------- 1 1.0 3.0 47 87
+ 0.99 1 2 tcp 1040 ------- 1 1.0 3.0 50 93
r 0.99032 1 2 tcp 1040 ------- 1 1.0 3.0 45 82
+ 0.99032 2 3 tcp 1040 ------- 1 1.0 3.0 45 82
- 0.99032 2 3 tcp 1040 ------- 1 1.0 3.0 45 82
r 0.992 2 3 tcp 1040 ------- 1 1.0 3.0 43 78
+ 0.992 3 2 ack 40 ------- 1 3.0 1.0 43 94
- 0.992 3 2 ack 40 ------- 1 3.0 1.0 43 94
r 0.994 3 2 ack 40 ------- 1 3.0 1.0 42 92
+ 0.994 2 1 ack 40 ------- 1 3.0 1.0 42 92
- 0.994 2 1 ack 40 ------- 1 3.0 1.0 42 92
r 0.996 2 1 ack 40 ------- 1 3.0 1.0 41 90
- 0.99696 1 2 tcp 1040 ------- 1 1.0 3.0 48 89
r 0.99864 1 2 tcp 1040 ------- 1 1.0 3.0 46 84
+ 0.99864 2 3 tcp 1040 ------- 1 1.0 3.0 46 84
- 0.99864 2 3 tcp 1040 ------- 1 1.0 3.0 46 84
+ 1 1 2 tcp 1040 ------- 1 1.0 3.0 51 95
r 1.00032 2 3 tcp 1040 ------- 1 1.0 3.0 44 80
+ 1.00032 3 2 ack 40 ------- 1 3.0 1.0 44 96
- 1.00032 3 2 ack 40 ------- 1 3.0 1.0 44 96
r 1.00232 3 2 ack 40 ------- 1 3.0 1.0 43 94
+ 1.00232 2 1 ack 40 ------- 1 3.0 1.0 43 94
- 1.00232 2 1 ack 40 ------- 1 3.0 1.0 43 94
r 1.00432 2 1 ack 40 ------- 1 3.0 1.0 42 92
- 1.00528 1 2 tcp 1040 ------- 1 1.0 3.0 49 91
r 1.00696 1 2 tcp 1040 ------- 1 1.0 3.0 47 87
+ 1.00696 2 3 tcp 1040 ------- 1 1.0 3.0 47 87
- 1.00696 2 3 tcp 1040 ------- 1 1.0 3.0 47 87
r 1.00864 2 3 tcp 1040 ------- 1 1.0 3.0 45 82
+ 1.00864 3 2 ack 40 ------- 1 3.0 1.0 45 97
- 1.00864 3 2 ack 40 ------- 1 3.0 1.0 45 97
+ 1.01 1 2 tcp 1040 ------- 1 1.0 3.0 52 98
r 1.01064 3 2 ack 40 ------- 1 3.0 1.0 44 96
+ 1.01064 2 1 ack 40 ------- 1 3.0 1.0 44 96
- 1.01064 2 1 ack 40 ------- 1 3.0 1.0 44 96
r 1.01264 2 1 ack 40 ------- 1 3.0 1.0 43 94
- 1.0136 1 2 tcp 1040 ------- 1 1.0 3.0 50 93
r 1.01528 1 2 tcp 1040 ------- 1 1.0 3.0 48 89
+ 1.01528 2 3 tcp 1040 ------- 1 1.0 3.0 48 89
- 1.01528 2 3 tcp 1040 ------- 1 1.0 3.0 48 89
r 1.01696 2 3 tcp 1040 ------- 1 1.0 3.0 46 84
+ 1.01696 3 2 ack 40 ------- 1 3.0 1.0 46 99
- 1.01696 3 2 ack 40 ------- 1 3.0 1.0 46 99
r 1.01896 3 2 ack 40 ------- 1 3.0 1.0 45 97
+ 1.01896 2 1 ack 40 ------- 1 3.0 1.0 45 97
- 1.01896 2 1 ack 40 ------- 1 3.0 1.0 45 97
+ 1.02 1 2 tcp 1040 ------- 1 1.0 3.0 53 100
r 1.02096 2 1 ack 40 ------- 1 3.0 1.0 44 96
- 1.02192 1 2 tcp 1040 ------- 1 1.0 3.0 51 95
r 1.0236 1 2 tcp 1040 ------- 1 1.0 3.0 49 91
+ 1.0236 2 3 tcp 1040 ------- 1 1.0 3.0 49 91
- 1.0236 2 3 tcp 1040 ------- 1 1.0 3.0 49 91
r 1.02528 2 3 tcp 1040 ------- 1 1.0 3.0 47 87
+ 1.02528 3 2 ack 40 ------- 1 3.0 1.0 47 101
- 1.02528 3 2 ack 40 ------- 1 3.0 1.0 47 101
r 1.02728 3 2 ack 40 ------- 1 3.0 1.0 46 99
+ 1.02728 2 1 ack 40 ------- 1 3.0 1.0 46 99
- 1.02728 2 1 ack 40 ------- 1 3.0 1.0 46 99
r 1.02928 2 1 ack 40 ------- 1 3.0 1.0 45 97
+ 1.03 1 2 tcp 1040 ------- 1 1.0 3.0 54 102
- 1.03024 1 2 tcp 1040 ------- 1 1.0 3.0 52 98
r 1.03192 1 2 tcp 1040 ------- 1 1.0 3.0 50 93
+ 1.03192 2 3 tcp 1040 ------- 1 1.0 3.0 50 93
- 1.03192 2 3 tcp 1040 ------- 1 1.0 3.0 50 93
r 1.0336 2 3 tcp 1040 ------- 1 1.0 3.0 48 89
+ 1.0336 3 2 ack 40 ------- 1 3.0 1.0 48 103
- 1.0336 3 2 ack 40 ------- 1 3.0 1.0 48 103
r 1.0356 3 2 ack 40 ------- 1 3.0 1.0 47 101
+ 1.0356 2 1 ack 40 ------- 1 3.0 1.0 47 101
- 1.0356 2 1 ack 40 ------- 1 3.0 1.0 47 101
r 1.0376 2 1 ack 40 ------- 1 3.0 1.0 46 99
- 1.03856 1 2 tcp 1040 ------- 1 1.0 3.0 53 100
+ 1.04 1 2 tcp 1040 ------- 1 1.0 3.0 55 104
r 1.04024 1 2 tcp 1040 ------- 1 1.0 3.0 51 95
+ 1.04024 2 3 tcp 1040 ------- 1 1.0 3.0 51 95
- 1.04024 2 3 tcp 1040 ------- 1 1.0 3.0 51 95
r 1.04192 2 3 tcp 1040 ------- 1 1.0 3.0 49 91
+ 1.04192 3 2 ack 40 ------- 1 3.0 1.0 49 105
- 1.04192 3 2 ack 40 ------- 1 3.0 1.0 49 105
r 1.04392 3 2 ack 40 ------- 1 3.0 1.0 48 103
+ 1.04392 2 1 ack 40 ------- 1 3.0 1.0 48 103
- 1.04392 2 1 ack 40 ------- 1 3.0 1.0 48 103
r 1.04592 2 1 ack 40 ------- 1 3.0 1.0 47 101
- 1.04688 1 2 tcp 1040 ------- 1 1.0 3.0 54 102
r 1.04856 1 2 tcp 1040 ------- 1 1.0 3.0 52 98
+ 1.04856 2 3 tcp 1040 ------- 1 1.0 3.0 52 98
- 1.04856 2 3 tcp 1040 ------- 1 1.0 3.0 52 98
+ 1.05 1 2 tcp 1040 ------- 1 1.0 3.0 56 106
r 1.05024 2 3 tcp 1040 ------- 1 1.0 3.0 50 93
+ 1.05024 3 2 ack 40 ------- 1 3.0 1.0 50 107
- 1.05024 3 2 ack 40 ------- 1 3.0 1.0 50 107
r 1.05224 3 2 ack 40 ------- 1 3.0 1.0 49 105
+ 1.05224 2 1 ack 40 ------- 1 3.0 1.0 49 105
- 1.05224 2 1 ack 40 ------- 1 3.0 1.0 49 105
r 1.05424 2 1 ack 40 ------- 1 3.0 1.0 48 103
- 1.0552 1 2 tcp 1040 ------- 1 1.0 3.0 55 104
r 1.05688 1 2 tcp 1040 ------- 1 1.0 3.0 53 100
+ 1.05688 2 3 tcp 1040 ------- 1 1.0 3.0 53 100
- 1.05688 2 3 tcp 1040 ------- 1 1.0 3.0 53 100
r 1.05856 2 3 tcp 1040 ------- 1 1.0 3.0 51 95
+ 1.05856 3 2 ack 40 ------- 1 3.0 1.0 51 108
- 1.05856 3 2 ack 40 ------- 1 3.0 1.0 51 108
+ 1.06 1 2 tcp 1040 ------- 1 1.0 3.0 57 109
r 1.06056 3 2 ack 40 ------- 1 3.0 1.0 50 107
+ 1.06056 2 1 ack 40 ------- 1 3.0 1.0 50 107
- 1.06056 2 1 ack 40 ------- 1 3.0 1.0 50 107
r 1.06256 2 1 ack 40 ------- 1 3.0 1.0 49 105
- 1.06352 1 2 tcp 1040 ------- 1 1.0 3.0 56 106
r 1.0652 1 2 tcp 1040 ------- 1 1.0 3.0 54 102
+ 1.0652 2 3 tcp 1040 ------- 1 1.0 3.0 54 102
- 1.0652 2 3 tcp 1040 ------- 1 1.0 3.0 54 102
r 1.06688 2 3 tcp 1040 ------- 1 1.0 3.0 52 98
+ 1.06688 3 2 ack 40 ------- 1 3.0 1.0 52 110
- 1.06688 3 2 ack 40 ------- 1 3.0 1.0 52 110
r 1.06888 3 2 ack 40 ------- 1 3.0 1.0 51 108
+ 1.06888 2 1 ack 40 ------- 1 3.0 1.0 51 108
- 1.06888 2 1 ack 40 ------- 1 3.0 1.0 51 108
+ 1.07 1 2 tcp 1040 ------- 1 1.0 3.0 58 111
r 1.07088 2 1 ack 40 ------- 1 3.0 1.0 50 107
- 1.07184 1 2 tcp 1040 ------- 1 1.0 3.0 57 109
r 1.07352 1 2 tcp 1040 ------- 1 1.0 3.0 55 104
+ 1.07352 2 3 tcp 1040 ------- 1 1.0 3.0 55 104
- 1.07352 2 3 tcp 1040 ------- 1 1.0 3.0 55 104
r 1.0752 2 3 tcp 1040 ------- 1 1.0 3.0 53 100
+ 1.0752 3 2 ack 40 ------- 1 3.0 1.0 53 112
- 1.0752 3 2 ack 40 ------- 1 3.0 1.0 53 112
r 1.0772 3 2 ack 40 ------- 1 3.0 1.0 52 110
+ 1.0772 2 1 ack 40 ------- 1 3.0 1.0 52 110
- 1.0772 2 1 ack 40 ------- 1 3.0 1.0 52 110
r 1.0792 2 1 ack 40 ------- 1 3.0 1.0 51 108
+ 1.08 1 2 tcp 1040 ------- 1 1.0 3.0 59 113
- 1.08016 1 2 tcp 1040 ------- 1 1.0 3.0 58 111