n -t 0 -s 0 -S DLABEL -l "US1" -L ""
n -t 0 -s 3 -S DLABEL -l "TS1" -L ""
n -t 0 -s 7 -S DLABEL -l "UD1" -L ""
n -t 0 -s 8 -S DLABEL -l "TD1" -L ""
V -t * -v 1.0a5 -a 0
A -t * -n 1 -p 0 -o 0x7fffffff -c 30 -a 1
A -t * -h 1 -m 1073741823 -s 0
c -t * -i 1 -n Blue
c -t * -i 2 -n Red
n -t * -a 0 -s 0 -S UP -v circle -c black -i black
n -t * -a 1 -s 1 -S UP -v circle -c black -i black
n -t * -a 2 -s 2 -S UP -v circle -c black -i black
n -t * -a 3 -s 3 -S UP -v circle -c black -i black
n -t * -a 4 -s 4 -S UP -v circle -c black -i black
n -t * -a 5 -s 5 -S UP -v circle -c black -i black
n -t * -a 6 -s 6 -S UP -v circle -c black -i black
n -t * -a 7 -s 7 -S UP -v circle -c black -i black
n -t * -a 8 -s 8 -S UP -v circle -c black -i black
n -t * -a 9 -s 9 -S UP -v circle -c black -i black
l -t * -s 2 -d 6 -S UP -r 1000000 -D 0.029999999999999999 -c black -o up
X -t * -n 10 -r 1Mb -D 10ms -o left
L -t * -s 10 -d 0 -o up
L -t * -s 10 -d 1 -o down
L -t * -s 10 -d 3 -o up
L -t * -s 10 -d 4 -o down
L -t * -s 10 -d 2 -o up
X -t * -n 11 -r 1Mb -D 10ms -o left
L -t * -s 11 -d 5 -o up
L -t * -s 11 -d 6 -o down
L -t * -s 11 -d 7 -o up
L -t * -s 11 -d 8 -o down
L -t * -s 11 -d 9 -o up
h -t 1 -s 0 -d 10 -p cbr -e 500 -c 2 -i 0 -a 2 -x {0.0 7.0 0 ------- null}
h -t 1 -s 3 -d 10 -p tcp -e 40 -c 1 -i 1 -a 1 -x {3.0 8.0 0 ------- null}
h -t 1.00892857142857 -s 0 -d 10 -p cbr -e 500 -c 2 -i 2 -a 2 -x {0.0 7.0 1 ------- null}
+ -t 1.01 -s 0 -d 10 -p cbr -e 500 -c 2 -i 0 -a 2 -x {0.0 7.0 0 ------- null}
- -t 1.01 -s 0 -d 10 -p cbr -e 500 -c 2 -i 0 -a 2 -x {0.0 7.0 0 ------- null}
h -t 1.01 -s 0 -d 10 -p cbr -e 500 -c 2 -i 0 -a 2 -x {0.0 7.0 -1 ------- null}
+ -t 1.01 -s 3 -d 10 -p tcp -e 40 -c 1 -i 1 -a 1 -x {3.0 8.0 0 ------- null}
- -t 1.01 -s 3 -d 10 -p tcp -e 40 -c 1 -i 1 -a 1 -x {3.0 8.0 0 ------- null}
h -t 1.01 -s 3 -d 10 -p tcp -e 40 -c 1 -i 1 -a 1 -x {3.0 8.0 -1 ------- null}
h -t 1.01785714285714 -s 0 -d 10 -p cbr -e 500 -c 2 -i 3 -a 2 -x {0.0 7.0 2 ------- null}
+ -t 1.01892857142857 -s 0 -d 10 -p cbr -e 500 -c 2 -i 2 -a 2 -x {0.0 7.0 1 ------- null}
- -t 1.01892857142857 -s 0 -d 10 -p cbr -e 500 -c 2 -i 2 -a 2 -x {0.0 7.0 1 ------- null}
h -t 1.01892857142857 -s 0 -d 10 -p cbr -e 500 -c 2 -i 2 -a 2 -x {0.0 7.0 -1 ------- null}
r -t 1.020648 -s 10 -d 2 -p tcp -e 40 -c 1 -i 1 -a 1 -x {3.0 8.0 0 ------- null}
+ -t 1.020648 -s 2 -d 6 -p tcp -e 40 -c 1 -i 1 -a 1 -x {3.0 8.0 0 ------- null}
- -t 1.020648 -s 2 -d 6 -p tcp -e 40 -c 1 -i 1 -a 1 -x {3.0 8.0 0 ------- null}
h -t 1.020648 -s 2 -d 6 -p tcp -e 40 -c 1 -i 1 -a 1 -x {3.0 8.0 -1 ------- null}
r -t 1.02486 -s 10 -d 2 -p cbr -e 500 -c 2 -i 0 -a 2 -x {0.0 7.0 0 ------- null}
+ -t 1.02486 -s 2 -d 6 -p cbr -e 500 -c 2 -i 0 -a 2 -x {0.0 7.0 0 ------- null}
- -t 1.02486 -s 2 -d 6 -p cbr -e 500 -c 2 -i 0 -a 2 -x {0.0 7.0 0 ------- null}
h -t 1.02486 -s 2 -d 6 -p cbr -e 500 -c 2 -i 0 -a 2 -x {0.0 7.0 -1 ------- null}
h -t 1.02678571428571 -s 0 -d 10 -p cbr -e 500 -c 2 -i 4 -a 2 -x {0.0 7.0 3 ------- null}
+ -t 1.02785714285714 -s 0 -d 10 -p cbr -e 500 -c 2 -i 3 -a 2 -x {0.0 7.0 2 ------- null}
- -t 1.02785714285714 -s 0 -d 10 -p cbr -e 500 -c 2 -i 3 -a 2 -x {0.0 7.0 2 ------- null}
h -t 1.02785714285714 -s 0 -d 10 -p cbr -e 500 -c 2 -i 3 -a 2 -x {0.0 7.0 -1 ------- null}
r -t 1.03304457142857 -s 10 -d 2 -p cbr -e 500 -c 2 -i 2 -a 2 -x {0.0 7.0 1 ------- null}
+ -t 1.03304457142857 -s 2 -d 6 -p cbr -e 500 -c 2 -i 2 -a 2 -x {0.0 7.0 1 ------- null}
- -t 1.03304457142857 -s 2 -d 6 -p cbr -e 500 -c 2 -i 2 -a 2 -x {0.0 7.0 1 ------- null}
h -t 1.03304457142857 -s 2 -d 6 -p cbr -e 500 -c 2 -i 2 -a 2 -x {0.0 7.0 -1 ------- null}
h -t 1.03571428571429 -s 0 -d 10 -p cbr -e 500 -c 2 -i 5 -a 2 -x {0.0 7.0 4 ------- null}
+ -t 1.03678571428571 -s 0 -d 10 -p cbr -e 500 -c 2 -i 4 -a 2 -x {0.0 7.0 3 ------- null}
- -t 1.03678571428571 -s 0 -d 10 -p cbr -e 500 -c 2 -i 4 -a 2 -x {0.0 7.0 3 ------- null}
h -t 1.03678571428571 -s 0 -d 10 -p cbr -e 500 -c 2 -i 4 -a 2 -x {0.0 7.0 -1 ------- null}
r -t 1.04197314285714 -s 10 -d 2 -p cbr -e 500 -c 2 -i 3 -a 2 -x {0.0 7.0 2 ------- null}
+ -t 1.04197314285714 -s 2 -d 6 -p cbr -e 500 -c 2 -i 3 -a 2 -x {0.0 7.0 2 ------- null}
- -t 1.04197314285714 -s 2 -d 6 -p cbr -e 500 -c 2 -i 3 -a 2 -x {0.0 7.0 2 ------- null}
h -t 1.04197314285714 -s 2 -d 6 -p cbr -e 500 -c 2 -i 3 -a 2 -x {0.0 7.0 -1 ------- null}
h -t 1.04464285714286 -s 0 -d 10 -p cbr -e 500 -c 2 -i 6 -a 2 -x {0.0 7.0 5 ------- null}
+ -t 1.04571428571429 -s 0 -d 10 -p cbr -e 500 -c 2 -i 5 -a 2 -x {0.0 7.0 4 ------- null}
- -t 1.04571428571429 -s 0 -d 10 -p cbr -e 500 -c 2 -i 5 -a 2 -x {0.0 7.0 4 ------- null}
h -t 1.04571428571429 -s 0 -d 10 -p cbr -e 500 -c 2 -i 5 -a 2 -x {0.0 7.0 -1 ------- null}
r -t 1.05090171428571 -s 10 -d 2 -p cbr -e 500 -c 2 -i 4 -a 2 -x {0.0 7.0 3 ------- null}
+ -t 1.05090171428571 -s 2 -d 6 -p cbr -e 500 -c 2 -i 4 -a 2 -x {0.0 7.0 3 ------- null}
- -t 1.05090171428571 -s 2 -d 6 -p cbr -e 500 -c 2 -i 4 -a 2 -x {0.0 7.0 3 ------- null}
h -t 1.05090171428571 -s 2 -d 6 -p cbr -e 500 -c 2 -i 4 -a 2 -x {0.0 7.0 -1 ------- null}
r -t 1.050968 -s 2 -d 6 -p tcp -e 40 -c 1 -i 1 -a 1 -x {3.0 8.0 0 ------- null}
h -t 1.050968 -s 6 -d 11 -p tcp -e 40 -c 1 -i 1 -a 1 -x {3.0 8.0 0 ------- null}
h -t 1.05357142857143 -s 0 -d 10 -p cbr -e 500 -c 2 -i 7 -a 2 -x {0.0 7.0 6 ------- null}
+ -t 1.05464285714286 -s 0 -d 10 -p cbr -e 500 -c 2 -i 6 -a 2 -x {0.0 7.0 5 ------- null}
- -t 1.05464285714286 -s 0 -d 10 -p cbr -e 500 -c 2 -i 6 -a 2 -x {0.0 7.0 5 ------- null}
h -t 1.05464285714286 -s 0 -d 10 -p cbr -e 500 -c 2 -i 6 -a 2 -x {0.0 7.0 -1 ------- null}
r -t 1.05886 -s 2 -d 6 -p cbr -e 500 -c 2 -i 0 -a 2 -x {0.0 7.0 0 ------- null}
h -t 1.05886 -s 6 -d 11 -p cbr -e 500 -c 2 -i 0 -a 2 -x {0.0 7.0 0 ------- null}
r -t 1.05983028571429 -s 10 -d 2 -p cbr -e 500 -c 2 -i 5 -a 2 -x {0.0 7.0 4 ------- null}
+ -t 1.05983028571429 -s 2 -d 6 -p cbr -e 500 -c 2 -i 5 -a 2 -x {0.0 7.0 4 ------- null}
- -t 1.05983028571429 -s 2 -d 6 -p cbr -e 500 -c 2 -i 5 -a 2 -x {0.0 7.0 4 ------- null}
h -t 1.05983028571429 -s 2 -d 6 -p cbr -e 500 -c 2 -i 5 -a 2 -x {0.0 7.0 -1 ------- null}
+ -t 1.060968 -s 6 -d 11 -p tcp -e 40 -c 1 -i 1 -a 1 -x {3.0 8.0 0 ------- null}
- -t 1.060968 -s 6 -d 11 -p tcp -e 40 -c 1 -i 1 -a 1 -x {3.0 8.0 0 ------- null}
h -t 1.060968 -s 6 -d 11 -p tcp -e 40 -c 1 -i 1 -a 1 -x {3.0 8.0 -1 ------- null}
h -t 1.0625 -s 0 -d 10 -p cbr -e 500 -c 2 -i 8 -a 2 -x {0.0 7.0 7 ------- null}
+ -t 1.06357142857143 -s 0 -d 10 -p cbr -e 500 -c 2 -i 7 -a 2 -x {0.0 7.0 6 ------- null}
- -t 1.06357142857143 -s 0 -d 10 -p cbr -e 500 -c 2 -i 7 -a 2 -x {0.0 7.0 6 ------- null}
h -t 1.06357142857143 -s 0 -d 10 -p cbr -e 500 -c 2 -i 7 -a 2 -x {0.0 7.0 -1 ------- null}
r -t 1.06704457142857 -s 2 -d 6 -p cbr -e 500 -c 2 -i 2 -a 2 -x {0.0 7.0 1 ------- null}
h -t 1.06704457142857 -s 6 -d 11 -p cbr -e 500 -c 2 -i 2 -a 2 -x {0.0 7.0 1 ------- null}
r -t 1.06875885714286 -s 10 -d 2 -p cbr -e 500 -c 2 -i 6 -a 2 -x {0.0 7.0 5 ------- null}
+ -t 1.06875885714286 -s 2 -d 6 -p cbr -e 500 -c 2 -i 6 -a 2 -x {0.0 7.0 5 ------- null}
- -t 1.06875885714286 -s 2 -d 6 -p cbr -e 500 -c 2 -i 6 -a 2 -x {0.0 7.0 5 ------- null}
h -t 1.06875885714286 -s 2 -d 6 -p cbr -e 500 -c 2 -i 6 -a 2 -x {0.0 7.0 -1 ------- null}
+ -t 1.06886 -s 6 -d 11 -p cbr -e 500 -c 2 -i 0 -a 2 -x {0.0 7.0 0 ------- null}
- -t 1.06886 -s 6 -d 11 -p cbr -e 500 -c 2 -i 0 -a 2 -x {0.0 7.0 0 ------- null}
h -t 1.06886 -s 6 -d 11 -p cbr -e 500 -c 2 -i 0 -a 2 -x {0.0 7.0 -1 ------- null}
h -t 1.07142857142857 -s 0 -d 10 -p cbr -e 500 -c 2 -i 9 -a 2 -x {0.0 7.0 8 ------- null}
r -t 1.071484 -s 11 -d 8 -p tcp -e 40 -c 1 -i 1 -a 1 -x {3.0 8.0 0 ------- null}
h -t 1.071484 -s 8 -d 11 -p ack -e 40 -c 1 -i 10 -a 1 -x {8.0 3.0 0 ------- null}
+ -t 1.0725 -s 0 -d 10 -p cbr -e 500 -c 2 -i 8 -a 2 -x {0.0 7.0 7 ------- null}
- -t 1.0725 -s 0 -d 10 -p cbr -e 500 -c 2 -i 8 -a 2 -x {0.0 7.0 7 ------- null}
h -t 1.0725 -s 0 -d 10 -p cbr -e 500 -c 2 -i 8 -a 2 -x {0.0 7.0 -1 ------- null}
r -t 1.07597314285714 -s 2 -d 6 -p cbr -e 500 -c 2 -i 3 -a 2 -x {0.0 7.0 2 ------- null}
h -t 1.07597314285714 -s 6 -d 11 -p cbr -e 500 -c 2 -i 3 -a 2 -x {0.0 7.0 2 ------- null}
+ -t 1.07704457142857 -s 6 -d 11 -p cbr -e 500 -c 2 -i 2 -a 2 -x {0.0 7.0 1 ------- null}
- -t 1.07704457142857 -s 6 -d 11 -p cbr -e 500 -c 2 -i 2 -a 2 -x {0.0 7.0 1 ------- null}
h -t 1.07704457142857 -s 6 -d 11 -p cbr -e 500 -c 2 -i 2 -a 2 -x {0.0 7.0 -1 ------- null}
r -t 1.07768742857143 -s 10 -d 2 -p cbr -e 500 -c 2 -i 7 -a 2 -x {0.0 7.0 6 ------- null}
+ -t 1.07768742857143 -s 2 -d 6 -p cbr -e 500 -c 2 -i 7 -a 2 -x {0.0 7.0 6 ------- null}
- -t 1.07768742857143 -s 2 -d 6 -p cbr -e 500 -c 2 -i 7 -a 2 -x {0.0 7.0 6 ------- null}
h -t 1.07768742857143 -s 2 -d 6 -p cbr -e 500 -c 2 -i 7 -a 2 -x {0.0 7.0 -1 ------- null}
h -t 1.08035714285714 -s 0 -d 10 -p cbr -e 500 -c 2 -i 11 -a 2 -x {0.0 7.0 9 ------- null}
+ -t 1.08142857142857 -s 0 -d 10 -p cbr -e 500 -c 2 -i 9 -a 2 -x {0.0 7.0 8 ------- null}
- -t 1.08142857142857 -s 0 -d 10 -p cbr -e 500 -c 2 -i 9 -a 2 -x {0.0 7.0 8 ------- null}
h -t 1.08142857142857 -s 0 -d 10 -p cbr -e 500 -c 2 -i 9 -a 2 -x {0.0 7.0 -1 ------- null}
+ -t 1.081484 -s 8 -d 11 -p ack -e 40 -c 1 -i 10 -a 1 -x {8.0 3.0 0 ------- null}
- -t 1.081484 -s 8 -d 11 -p ack -e 40 -c 1 -i 10 -a 1 -x {8.0 3.0 0 ------- null}
h -t 1.081484 -s 8 -d 11 -p ack -e 40 -c 1 -i 10 -a 1 -x {8.0 3.0 -1 ------- null}
r -t 1.082976 -s 11 -d 7 -p cbr -e 500 -c 2 -i 0 -a 2 -x {0.0 7.0 0 ------- null}
r -t 1.08490171428571 -s 2 -d 6 -p cbr -e 500 -c 2 -i 4 -a 2 -x {0.0 7.0 3 ------- null}
h -t 1.08490171428571 -s 6 -d 11 -p cbr -e 500 -c 2 -i 4 -a 2 -x {0.0 7.0 3 ------- null}
+ -t 1.08597314285714 -s 6 -d 11 -p cbr -e 500 -c 2 -i 3 -a 2 -x {0.0 7.0 2 ------- null}
- -t 1.08597314285714 -s 6 -d 11 -p cbr -e 500 -c 2 -i 3 -a 2 -x {0.0 7.0 2 ------- null}
h -t 1.08597314285714 -s 6 -d 11 -p cbr -e 500 -c 2 -i 3 -a 2 -x {0.0 7.0 -1 ------- null}
r -t 1.086616 -s 10 -d 2 -p cbr -e 500 -c 2 -i 8 -a 2 -x {0.0 7.0 7 ------- null}
+ -t 1.086616 -s 2 -d 6 -p cbr -e 500 -c 2 -i 8 -a 2 -x {0.0 7.0 7 ------- null}
- -t 1.086616 -s 2 -d 6 -p cbr -e 500 -c 2 -i 8 -a 2 -x {0.0 7.0 7 ------- null}
h -t 1.086616 -s 2 -d 6 -p cbr -e 500 -c 2 -i 8 -a 2 -x {0.0 7.0 -1 ------- null}
h -t 1.08928571428571 -s 0 -d 10 -p cbr -e 500 -c 2 -i 12 -a 2 -x {0.0 7.0 10 ------- null}
+ -t 1.09035714285714 -s 0 -d 10 -p cbr -e 500 -c 2 -i 11 -a 2 -x {0.0 7.0 9 ------- null}
- -t 1.09035714285714 -s 0 -d 10 -p cbr -e 500 -c 2 -i 11 -a 2 -x {0.0 7.0 9 ------- null}
h -t 1.09035714285714 -s 0 -d 10 -p cbr -e 500 -c 2 -i 11 -a 2 -x {0.0 7.0 -1 ------- null}
r -t 1.09116057142857 -s 11 -d 7 -p cbr -e 500 -c 2 -i 2 -a 2 -x {0.0 7.0 1 ------- null}
r -t 1.092 -s 11 -d 6 -p ack -e 40 -c 1 -i 10 -a 1 -x {8.0 3.0 0 ------- null}
+ -t 1.092 -s 6 -d 2 -p ack -e 40 -c 1 -i 10 -a 1 -x {8.0 3.0 0 ------- null}
- -t 1.092 -s 6 -d 2 -p ack -e 40 -c 1 -i 10 -a 1 -x {8.0 3.0 0 ------- null}
h -t 1.092 -s 6 -d 2 -p ack -e 40 -c 1 -i 10 -a 1 -x {8.0 3.0 -1 ------- null}
r -t 1.09383028571429 -s 2 -d 6 -p cbr -e 500 -c 2 -i 5 -a 2 -x {0.0 7.0 4 ------- null}
h -t 1.09383028571429 -s 6 -d 11 -p cbr -e 500 -c 2 -i 5 -a 2 -x {0.0 7.0 4 ------- null}
+ -t 1.09490171428571 -s 6 -d 11 -p cbr -e 500 -c 2 -i 4 -a 2 -x {0.0 7.0 3 ------- null}
- -t 1.09490171428571 -s 6 -d 11 -p cbr -e 500 -c 2 -i 4 -a 2 -x {0.0 7.0 3 ------- null}
h -t 1.09490171428571 -s 6 -d 11 -p cbr -e 500 -c 2 -i 4 -a 2 -x {0.0 7.0 -1 ------- null}
r -t 1.09554457142857 -s 10 -d 2 -p cbr -e 500 -c 2 -i 9 -a 2 -x {0.0 7.0 8 ------- null}
d -t 1.09554457142857 -s 2 -d 6 -p cbr -e 500 -c 2 -i 9 -a 2 -x {0.0 7.0 8 ------- null}
h -t 1.09821428571429 -s 0 -d 10 -p cbr -e 500 -c 2 -i 13 -a 2 -x {0.0 7.0 11 ------- null}
+ -t 1.09928571428571 -s 0 -d 10 -p cbr -e 500 -c 2 -i 12 -a 2 -x {0.0 7.0 10 ------- null}
- -t 1.09928571428571 -s 0 -d 10 -p cbr -e 500 -c 2 -i 12 -a 2 -x {0.0 7.0 10 ------- null}
h -t 1.09928571428571 -s 0 -d 10 -p cbr -e 500 -c 2 -i 12 -a 2 -x {0.0 7.0 -1 ------- null}
r -t 1.10008914285714 -s 11 -d 7 -p cbr -e 500 -c 2 -i 3 -a 2 -x {0.0 7.0 2 ------- null}
r -t 1.10275885714286 -s 2 -d 6 -p cbr -e 500 -c 2 -i 6 -a 2 -x {0.0 7.0 5 ------- null}
h -t 1.10275885714286 -s 6 -d 11 -p cbr -e 500 -c 2 -i 6 -a 2 -x {0.0 7.0 5 ------- null}
+ -t 1.10383028571429 -s 6 -d 11 -p cbr -e 500 -c 2 -i 5 -a 2 -x {0.0 7.0 4 ------- null}
- -t 1.10383028571429 -s 6 -d 11 -p cbr -e 500 -c 2 -i 5 -a 2 -x {0.0 7.0 4 ------- null}
h -t 1.10383028571429 -s 6 -d 11 -p cbr -e 500 -c 2 -i 5 -a 2 -x {0.0 7.0 -1 ------- null}
r -t 1.10447314285714 -s 10 -d 2 -p cbr -e 500 -c 2 -i 11 -a 2 -x {0.0 7.0 9 ------- null}
+ -t 1.10447314285714 -s 2 -d 6 -p cbr -e 500 -c 2 -i 11 -a 2 -x {0.0 7.0 9 ------- null}
- -t 1.10447314285714 -s 2 -d 6 -p cbr -e 500 -c 2 -i 11 -a 2 -x {0.0 7.0 9 ------- null}
h -t 1.10447314285714 -s 2 -d 6 -p cbr -e 500 -c 2 -i 11 -a 2 -x {0.0 7.0 -1 ------- null}
h -t 1.10714285714286 -s 0 -d 10 -p cbr -e 500 -c 2 -i 14 -a 2 -x {0.0 7.0 12 ------- null}
+ -t 1.10821428571429 -s 0 -d 10 -p cbr -e 500 -c 2 -i 13 -a 2 -x {0.0 7.0 11 ------- null}
- -t 1.10821428571429 -s 0 -d 10 -p cbr -e 500 -c 2 -i 13 -a 2 -x {0.0 7.0 11 ------- null}
h -t 1.10821428571429 -s 0 -d 10 -p cbr -e 500 -c 2 -i 13 -a 2 -x {0.0 7.0 -1 ------- null}
r -t 1.10901771428571 -s 11 -d 7 -p cbr -e 500 -c 2 -i 4 -a 2 -x {0.0 7.0 3 ------- null}
r -t 1.11168742857143 -s 2 -d 6 -p cbr -e 500 -c 2 -i 7 -a 2 -x {0.0 7.0 6 ------- null}
h -t 1.11168742857143 -s 6 -d 11 -p cbr -e 500 -c 2 -i 7 -a 2 -x {0.0 7.0 6 ------- null}
+ -t 1.11275885714286 -s 6 -d 11 -p cbr -e 500 -c 2 -i 6 -a 2 -x {0.0 7.0 5 ------- null}
- -t 1.11275885714286 -s 6 -d 11 -p cbr -e 500 -c 2 -i 6 -a 2 -x {0.0 7.0 5 ------- null}
h -t 1.11275885714286 -s 6 -d 11 -p cbr -e 500 -c 2 -i 6 -a 2 -x {0.0 7.0 -1 ------- null}
r -t 1.11340171428571 -s 10 -d 2 -p cbr -e 500 -c 2 -i 12 -a 2 -x {0.0 7.0 10 ------- null}
+ -t 1.11340171428571 -s 2 -d 6 -p cbr -e 500 -c 2 -i 12 -a 2 -x {0.0 7.0 10 ------- null}
- -t 1.11340171428571 -s 2 -d 6 -p cbr -e 500 -c 2 -i 12 -a 2 -x {0.0 7.0 10 ------- null}
h -t 1.11340171428571 -s 2 -d 6 -p cbr -e 500 -c 2 -i 12 -a 2 -x {0.0 7.0 -1 ------- null}
h -t 1.11607142857143 -s 0 -d 10 -p cbr -e 500 -c 2 -i 15 -a 2 -x {0.0 7.0 13 ------- null}
+ -t 1.11714285714286 -s 0 -d 10 -p cbr -e 500 -c 2 -i 14 -a 2 -x {0.0 7.0 12 ------- null}
- -t 1.11714285714286 -s 0 -d 10 -p cbr -e 500 -c 2 -i 14 -a 2 -x {0.0 7.0 12 ------- null}
h -t 1.11714285714286 -s 0 -d 10 -p cbr -e 500 -c 2 -i 14 -a 2 -x {0.0 7.0 -1 ------- null}
r -t 1.11794628571429 -s 11 -d 7 -p cbr -e 500 -c 2 -i 5 -a 2 -x {0.0 7.0 4 ------- null}
r -t 1.120616 -s 2 -d 6 -p cbr -e 500 -c 2 -i 8 -a 2 -x {0.0 7.0 7 ------- null}
h -t 1.120616 -s 6 -d 11 -p cbr -e 500 -c 2 -i 8 -a 2 -x {0.0 7.0 7 ------- null}
+ -t 1.12168742857143 -s 6 -d 11 -p cbr -e 500 -c 2 -i 7 -a 2 -x {0.0 7.0 6 ------- null}
- -t 1.12168742857143 -s 6 -d 11 -p cbr -e 500 -c 2 -i 7 -a 2 -x {0.0 7.0 6 ------- null}
h -t 1.12168742857143 -s 6 -d 11 -p cbr -e 500 -c 2 -i 7 -a 2 -x {0.0 7.0 -1 ------- null}
r -t 1.12232 -s 6 -d 2 -p ack -e 40 -c 1 -i 10 -a 1 -x {8.0 3.0 0 ------- null}
h -t 1.12232 -s 2 -d 10 -p ack -e 40 -c 1 -i 10 -a 1 -x {8.0 3.0 0 ------- null}
r -t 1.12233028571429 -s 10 -d 2 -p cbr -e 500 -c 2 -i 13 -a 2 -x {0.0 7.0 11 ------- null}
+ -t 1.12233028571429 -s 2 -d 6 -p cbr -e 500 -c 2 -i 13 -a 2 -x {0.0 7.0 11 ------- null}
- -t 1.12233028571429 -s 2 -d 6 -p cbr -e 500 -c 2 -i 13 -a 2 -x {0.0 7.0 11 ------- null}
h -t 1.12233028571429 -s 2 -d 6 -p cbr -e 500 -c 2 -i 13 -a 2 -x {0.0 7.0 -1 ------- null}
h -t 1.125 -s 0 -d 10 -p cbr -e 500 -c 2 -i 16 -a 2 -x {0.0 7.0 14 ------- null}
+ -t 1.12607142857143 -s 0 -d 10 -p cbr -e 500 -c 2 -i 15 -a 2 -x {0.0 7.0 13 ------- null}
- -t 1.12607142857143 -s 0 -d 10 -p cbr -e 500 -c 2 -i 15 -a 2 -x {0.0 7.0 13 ------- null}
h -t 1.12607142857143 -s 0 -d 10 -p cbr -e 500 -c 2 -i 15 -a 2 -x {0.0 7.0 -1 ------- null}
r -t 1.12687485714286 -s 11 -d 7 -p cbr -e 500 -c 2 -i 6 -a 2 -x {0.0 7.0 5 ------- null}
+ -t 1.130616 -s 6 -d 11 -p cbr -e 500 -c 2 -i 8 -a 2 -x {0.0 7.0 7 ------- null}
- -t 1.130616 -s 6 -d 11 -p cbr -e 500 -c 2 -i 8 -a 2 -x {0.0 7.0 7 ------- null}
h -t 1.130616 -s 6 -d 11 -p cbr -e 500 -c 2 -i 8 -a 2 -x {0.0 7.0 -1 ------- null}
r -t 1.13125885714286 -s 10 -d 2 -p cbr -e 500 -c 2 -i 14 -a 2 -x {0.0 7.0 12 ------- null}
+ -t 1.13125885714286 -s 2 -d 6 -p cbr -e 500 -c 2 -i 14 -a 2 -x {0.0 7.0 12 ------- null}
- -t 1.13125885714286 -s 2 -d 6 -p cbr -e 500 -c 2 -i 14 -a 2 -x {0.0 7.0 12 ------- null}
h -t 1.13125885714286 -s 2 -d 6 -p cbr -e 500 -c 2 -i 14 -a 2 -x {0.0 7.0 -1 ------- null}
+ -t 1.13232 -s 2 -d 10 -p ack -e 40 -c 1 -i 10 -a 1 -x {8.0 3.0 0 ------- null}
- -t 1.13232 -s 2 -d 10 -p ack -e 40 -c 1 -i 10 -a 1 -x {8.0 3.0 0 ------- null}
h -t 1.13232 -s 2 -d 10 -p ack -e 40 -c 1 -i 10 -a 1 -x {8.0 3.0 -1 ------- null}
h -t 1.13392857142857 -s 0 -d 10 -p cbr -e 500 -c 2 -i 17 -a 2 -x {0.0 7.0 15 ------- null}
+ -t 1.135 -s 0 -d 10 -p cbr -e 500 -c 2 -i 16 -a 2 -x {0.0 7.0 14 ------- null}
- -t 1.135 -s 0 -d 10 -p cbr -e 500 -c 2 -i 16 -a 2 -x {0.0 7.0 14 ------- null}
h -t 1.135 -s 0 -d 10 -p cbr -e 500 -c 2 -i 16 -a 2 -x {0.0 7.0 -1 ------- null}
r -t 1.13580342857143 -s 11 -d 7 -p cbr -e 500 -c 2 -i 7 -a 2 -x {0.0 7.0 6 ------- null}
r -t 1.13847314285714 -s 2 -d 6 -p cbr -e 500 -c 2 -i 11 -a 2 -x {0.0 7.0 9 ------- null}
h -t 1.13847314285714 -s 6 -d 11 -p cbr -e 500 -c 2 -i 11 -a 2 -x {0.0 7.0 9 ------- null}
r -t 1.14018742857143 -s 10 -d 2 -p cbr -e 500 -c 2 -i 15 -a 2 -x {0.0 7.0 13 ------- null}
+ -t 1.14018742857143 -s 2 -d 6 -p cbr -e 500 -c 2 -i 15 -a 2 -x {0.0 7.0 13 ------- null}
- -t 1.14018742857143 -s 2 -d 6 -p cbr -e 500 -c 2 -i 15 -a 2 -x {0.0 7.0 13 ------- null}
h -t 1.14018742857143 -s 2 -d 6 -p cbr -e 500 -c 2 -i 15 -a 2 -x {0.0 7.0 -1 ------- null}
r -t 1.142836 -s 10 -d 3 -p ack -e 40 -c 1 -i 10 -a 1 -x {8.0 3.0 0 ------- null}
h -t 1.142836 -s 3 -d 10 -p tcp -e 1040 -c 1 -i 18 -a 1 -x {3.0 8.0 1 ------- null}
h -t 1.142836 -s 3 -d 10 -p tcp -e 1040 -c 1 -i 19 -a 1 -x {3.0 8.0 2 ------- null}
h -t 1.14285714285714 -s 0 -d 10 -p cbr -e 500 -c 2 -i 20 -a 2 -x {0.0 7.0 16 ------- null}
+ -t 1.14392857142857 -s 0 -d 10 -p cbr -e 500 -c 2 -i 17 -a 2 -x {0.0 7.0 15 ------- null}
- -t 1.14392857142857 -s 0 -d 10 -p cbr -e 500 -c 2 -i 17 -a 2 -x {0.0 7.0 15 ------- null}
h -t 1.14392857142857 -s 0 -d 10 -p cbr -e 500 -c 2 -i 17 -a 2 -x {0.0 7.0 -1 ------- null}
r -t 1.144732 -s 11 -d 7 -p cbr -e 500 -c 2 -i 8 -a 2 -x {0.0 7.0 7 ------- null}
r -t 1.14740171428571 -s 2 -d 6 -p cbr -e 500 -c 2 -i 12 -a 2 -x {0.0 7.0 10 ------- null}
h -t 1.14740171428571 -s 6 -d 11 -p cbr -e 500 -c 2 -i 12 -a 2 -x {0.0 7.0 10 ------- null}
+ -t 1.14847314285714 -s 6 -d 11 -p cbr -e 500 -c 2 -i 11 -a 2 -x {0.0 7.0 9 ------- null}
- -t 1.14847314285714 -s 6 -d 11 -p cbr -e 500 -c 2 -i 11 -a 2 -x {0.0 7.0 9 ------- null}
h -t 1.14847314285714 -s 6 -d 11 -p cbr -e 500 -c 2 -i 11 -a 2 -x {0.0 7.0 -1 ------- null}
r -t 1.149116 -s 10 -d 2 -p cbr -e 500 -c 2 -i 16 -a 2 -x {0.0 7.0 14 ------- null}
d -t 1.149116 -s 2 -d 6 -p cbr -e 500 -c 2 -i 16 -a 2 -x {0.0 7.0 14 ------- null}
h -t 1.15178571428571 -s 0 -d 10 -p cbr -e 500 -c 2 -i 21 -a 2 -x {0.0 7.0 17 ------- null}
+ -t 1.152836 -s 3 -d 10 -p tcp -e 1040 -c 1 -i 18 -a 1 -x {3.0 8.0 1 ------- null}
- -t 1.152836 -s 3 -d 10 -p tcp -e 1040 -c 1 -i 18 -a 1 -x {3.0 8.0 1 ------- null}
h -t 1.152836 -s 3 -d 10 -p tcp -e 1040 -c 1 -i 18 -a 1 -x {3.0 8.0 -1 ------- null}
+ -t 1.152836 -s 3 -d 10 -p tcp -e 1040 -c 1 -i 19 -a 1 -x {3.0 8.0 2 ------- null}
+ -t 1.15285714285714 -s 0 -d 10 -p cbr -e 500 -c 2 -i 20 -a 2 -x {0.0 7.0 16 ------- null}
- -t 1.15285714285714 -s 0 -d 10 -p cbr -e 500 -c 2 -i 20 -a 2 -x {0.0 7.0 16 ------- null}
h -t 1.15285714285714 -s 0 -d 10 -p cbr -e 500 -c 2 -i 20 -a 2 -x {0.0 7.0 -1 ------- null}
r -t 1.15633028571429 -s 2 -d 6 -p cbr -e 500 -c 2 -i 13 -a 2 -x {0.0 7.0 11 ------- null}
h -t 1.15633028571429 -s 6 -d 11 -p cbr -e 500 -c 2 -i 13 -a 2 -x {0.0 7.0 11 ------- null}
+ -t 1.15740171428571 -s 6 -d 11 -p cbr -e 500 -c 2 -i 12 -a 2 -x {0.0 7.0 10 ------- null}
- -t 1.15740171428571 -s 6 -d 11 -p cbr -e 500 -c 2 -i 12 -a 2 -x {0.0 7.0 10 ------- null}
h -t 1.15740171428571 -s 6 -d 11 -p cbr -e 500 -c 2 -i 12 -a 2 -x {0.0 7.0 -1 ------- null}
r -t 1.15804457142857 -s 10 -d 2 -p cbr -e 500 -c 2 -i 17 -a 2 -x {0.0 7.0 15 ------- null}
+ -t 1.15804457142857 -s 2 -d 6 -p cbr -e 500 -c 2 -i 17 -a 2 -x {0.0 7.0 15 ------- null}
- -t 1.15804457142857 -s 2 -d 6 -p cbr -e 500 -c 2 -i 17 -a 2 -x {0.0 7.0 15 ------- null}
h -t 1.15804457142857 -s 2 -d 6 -p cbr -e 500 -c 2 -i 17 -a 2 -x {0.0 7.0 -1 ------- null}
h -t 1.16071428571429 -s 0 -d 10 -p cbr -e 500 -c 2 -i 22 -a 2 -x {0.0 7.0 18 ------- null}
- -t 1.161364 -s 3 -d 10 -p tcp -e 1040 -c 1 -i 19 -a 1 -x {3.0 8.0 2 ------- null}
h -t 1.161364 -s 3 -d 10 -p tcp -e 1040 -c 1 -i 19 -a 1 -x {3.0 8.0 -1 ------- null}
+ -t 1.16178571428571 -s 0 -d 10 -p cbr -e 500 -c 2 -i 21 -a 2 -x {0.0 7.0 17 ------- null}
r -t 1.16258914285714 -s 11 -d 7 -p cbr -e 500 -c 2 -i 11 -a 2 -x {0.0 7.0 9 ------- null}
r -t 1.16525885714286 -s 2 -d 6 -p cbr -e 500 -c 2 -i 14 -a 2 -x {0.0 7.0 12 ------- null}
h -t 1.16525885714286 -s 6 -d 11 -p cbr -e 500 -c 2 -i 14 -a 2 -x {0.0 7.0 12 ------- null}
+ -t 1.16633028571429 -s 6 -d 11 -p cbr -e 500 -c 2 -i 13 -a 2 -x {0.0 7.0 11 ------- null}
- -t 1.16633028571429 -s 6 -d 11 -p cbr -e 500 -c 2 -i 13 -a 2 -x {0.0 7.0 11 ------- null}
h -t 1.16633028571429 -s 6 -d 11 -p cbr -e 500 -c 2 -i 13 -a 2 -x {0.0 7.0 -1 ------- null}
- -t 1.166864 -s 0 -d 10 -p cbr -e 500 -c 2 -i 21 -a 2 -x {0.0 7.0 17 ------- null}
h -t 1.166864 -s 0 -d 10 -p cbr -e 500 -c 2 -i 21 -a 2 -x {0.0 7.0 -1 ------- null}
h -t 1.16964285714286 -s 0 -d 10 -p cbr -e 500 -c 2 -i 23 -a 2 -x {0.0 7.0 19 ------- null}
+ -t 1.17071428571429 -s 0 -d 10 -p cbr -e 500 -c 2 -i 22 -a 2 -x {0.0 7.0 18 ------- null}
r -t 1.171272 -s 10 -d 2 -p tcp -e 1040 -c 1 -i 18 -a 1 -x {3.0 8.0 1 ------- null}
+ -t 1.171272 -s 2 -d 6 -p tcp -e 1040 -c 1 -i 18 -a 1 -x {3.0 8.0 1 ------- null}
- -t 1.171272 -s 2 -d 6 -p tcp -e 1040 -c 1 -i 18 -a 1 -x {3.0 8.0 1 ------- null}
h -t 1.171272 -s 2 -d 6 -p tcp -e 1040 -c 1 -i 18 -a 1 -x {3.0 8.0 -1 ------- null}
r -t 1.17151771428571 -s 11 -d 7 -p cbr -e 500 -c 2 -i 12 -a 2 -x {0.0 7.0 10 ------- null}
- -t 1.17172 -s 0 -d 10 -p cbr -e 500 -c 2 -i 22 -a 2 -x {0.0 7.0 18 ------- null}
h -t 1.17172 -s 0 -d 10 -p cbr -e 500 -c 2 -i 22 -a 2 -x {0.0 7.0 -1 ------- null}
r -t 1.17418742857143 -s 2 -d 6 -p cbr -e 500 -c 2 -i 15 -a 2 -x {0.0 7.0 13 ------- null}
h -t 1.17418742857143 -s 6 -d 11 -p cbr -e 500 -c 2 -i 15 -a 2 -x {0.0 7.0 13 ------- null}
+ -t 1.17525885714286 -s 6 -d 11 -p cbr -e 500 -c 2 -i 14 -a 2 -x {0.0 7.0 12 ------- null}
- -t 1.17525885714286 -s 6 -d 11 -p cbr -e 500 -c 2 -i 14 -a 2 -x {0.0 7.0 12 ------- null}
h -t 1.17525885714286 -s 6 -d 11 -p cbr -e 500 -c 2 -i 14 -a 2 -x {0.0 7.0 -1 ------- null}
r -t 1.176772 -s 10 -d 2 -p cbr -e 500 -c 2 -i 20 -a 2 -x {0.0 7.0 16 ------- null}
+ -t 1.176772 -s 2 -d 6 -p cbr -e 500 -c 2 -i 20 -a 2 -x {0.0 7.0 16 ------- null}
h -t 1.17857142857143 -s 0 -d 10 -p cbr -e 500 -c 2 -i 24 -a 2 -x {0.0 7.0 20 ------- null}
- -t 1.179592 -s 2 -d 6 -p cbr -e 500 -c 2 -i 20 -a 2 -x {0.0 7.0 16 ------- null}
h -t 1.179592 -s 2 -d 6 -p cbr -e 500 -c 2 -i 20 -a 2 -x {0.0 7.0 -1 ------- null}
+ -t 1.17964285714286 -s 0 -d 10 -p cbr -e 500 -c 2 -i 23 -a 2 -x {0.0 7.0 19 ------- null}
- -t 1.17964285714286 -s 0 -d 10 -p cbr -e 500 -c 2 -i 23 -a 2 -x {0.0 7.0 19 ------- null}
h -t 1.17964285714286 -s 0 -d 10 -p cbr -e 500 -c 2 -i 23 -a 2 -x {0.0 7.0 -1 ------- null}
r -t 1.18044628571429 -s 11 -d 7 -p cbr -e 500 -c 2 -i 13 -a 2 -x {0.0 7.0 11 ------- null}
r -t 1.181628 -s 10 -d 2 -p cbr -e 500 -c 2 -i 21 -a 2 -x {0.0 7.0 17 ------- null}
+ -t 1.181628 -s 2 -d 6 -p cbr -e 500 -c 2 -i 21 -a 2 -x {0.0 7.0 17 ------- null}
- -t 1.183592 -s 2 -d 6 -p cbr -e 500 -c 2 -i 21 -a 2 -x {0.0 7.0 17 ------- null}
h -t 1.183592 -s 2 -d 6 -p cbr -e 500 -c 2 -i 21 -a 2 -x {0.0 7.0 -1 ------- null}
+ -t 1.18418742857143 -s 6 -d 11 -p cbr -e 500 -c 2 -i 15 -a 2 -x {0.0 7.0 13 ------- null}
- -t 1.18418742857143 -s 6 -d 11 -p cbr -e 500 -c 2 -i 15 -a 2 -x {0.0 7.0 13 ------- null}
h -t 1.18418742857143 -s 6 -d 11 -p cbr -e 500 -c 2 -i 15 -a 2 -x {0.0 7.0 -1 ------- null}
r -t 1.185972 -s 10 -d 2 -p cbr -e 500 -c 2 -i 22 -a 2 -x {0.0 7.0 18 ------- null}
+ -t 1.185972 -s 2 -d 6 -p cbr -e 500 -c 2 -i 22 -a 2 -x {0.0 7.0 18 ------- null}
h -t 1.1875 -s 0 -d 10 -p cbr -e 500 -c 2 -i 25 -a 2 -x {0.0 7.0 21 ------- null}
- -t 1.187592 -s 2 -d 6 -p cbr -e 500 -c 2 -i 22 -a 2 -x {0.0 7.0 18 ------- null}
h -t 1.187592 -s 2 -d 6 -p cbr -e 500 -c 2 -i 22 -a 2 -x {0.0 7.0 -1 ------- null}
+ -t 1.18857142857143 -s 0 -d 10 -p cbr -e 500 -c 2 -i 24 -a 2 -x {0.0 7.0 20 ------- null}
r -t 1.18937485714286 -s 11 -d 7 -p cbr -e 500 -c 2 -i 14 -a 2 -x {0.0 7.0 12 ------- null}
- -t 1.189712 -s 0 -d 10 -p cbr -e 500 -c 2 -i 24 -a 2 -x {0.0 7.0 20 ------- null}
h -t 1.189712 -s 0 -d 10 -p cbr -e 500 -c 2 -i 24 -a 2 -x {0.0 7.0 -1 ------- null}
r -t 1.19204457142857 -s 2 -d 6 -p cbr -e 500 -c 2 -i 17 -a 2 -x {0.0 7.0 15 ------- null}
h -t 1.19204457142857 -s 6 -d 11 -p cbr -e 500 -c 2 -i 17 -a 2 -x {0.0 7.0 15 ------- null}
r -t 1.195408 -s 10 -d 2 -p tcp -e 1040 -c 1 -i 19 -a 1 -x {3.0 8.0 2 ------- null}
+ -t 1.195408 -s 2 -d 6 -p tcp -e 1040 -c 1 -i 19 -a 1 -x {3.0 8.0 2 ------- null}
- -t 1.195408 -s 2 -d 6 -p tcp -e 1040 -c 1 -i 19 -a 1 -x {3.0 8.0 2 ------- null}
h -t 1.195408 -s 2 -d 6 -p tcp -e 1040 -c 1 -i 19 -a 1 -x {3.0 8.0 -1 ------- null}
h -t 1.19642857142857 -s 0 -d 10 -p cbr -e 500 -c 2 -i 26 -a 2 -x {0.0 7.0 22 ------- null}
+ -t 1.1975 -s 0 -d 10 -p cbr -e 500 -c 2 -i 25 -a 2 -x {0.0 7.0 21 ------- null}
- -t 1.1975 -s 0 -d 10 -p cbr -e 500 -c 2 -i 25 -a 2 -x {0.0 7.0 21 ------- null}
h -t 1.1975 -s 0 -d 10 -p cbr -e 500 -c 2 -i 25 -a 2 -x {0.0 7.0 -1 ------- null}
r -t 1.19830342857143 -s 11 -d 7 -p cbr -e 500 -c 2 -i 15 -a 2 -x {0.0 7.0 13 ------- null}
r -t 1.19962 -s 10 -d 2 -p cbr -e 500 -c 2 -i 23 -a 2 -x {0.0 7.0 19 ------- null}
+ -t 1.19962 -s 2 -d 6 -p cbr -e 500 -c 2 -i 23 -a 2 -x {0.0 7.0 19 ------- null}
+ -t 1.20204457142857 -s 6 -d 11 -p cbr -e 500 -c 2 -i 17 -a 2 -x {0.0 7.0 15 ------- null}
- -t 1.20204457142857 -s 6 -d 11 -p cbr -e 500 -c 2 -i 17 -a 2 -x {0.0 7.0 15 ------- null}
h -t 1.20204457142857 -s 6 -d 11 -p cbr -e 500 -c 2 -i 17 -a 2 -x {0.0 7.0 -1 ------- null}
- -t 1.203728 -s 2 -d 6 -p cbr -e 500 -c 2 -i 23 -a 2 -x {0.0 7.0 19 ------- null}
h -t 1.203728 -s 2 -d 6 -p cbr -e 500 -c 2 -i 23 -a 2 -x {0.0 7.0 -1 ------- null}
r -t 1.203828 -s 10 -d 2 -p cbr -e 500 -c 2 -i 24 -a 2 -x {0.0 7.0 20 ------- null}
+ -t 1.203828 -s 2 -d 6 -p cbr -e 500 -c 2 -i 24 -a 2 -x {0.0 7.0 20 ------- null}
h -t 1.20535714285714 -s 0 -d 10 -p cbr -e 500 -c 2 -i 27 -a 2 -x {0.0 7.0 23 ------- null}
+ -t 1.20642857142857 -s 0 -d 10 -p cbr -e 500 -c 2 -i 26 -a 2 -x {0.0 7.0 22 ------- null}
- -t 1.20642857142857 -s 0 -d 10 -p cbr -e 500 -c 2 -i 26 -a 2 -x {0.0 7.0 22 ------- null}
h -t 1.20642857142857 -s 0 -d 10 -p cbr -e 500 -c 2 -i 26 -a 2 -x {0.0 7.0 -1 ------- null}
- -t 1.207728 -s 2 -d 6 -p cbr -e 500 -c 2 -i 24 -a 2 -x {0.0 7.0 20 ------- null}
h -t 1.207728 -s 2 -d 6 -p cbr -e 500 -c 2 -i 24 -a 2 -x {0.0 7.0 -1 ------- null}
r -t 1.209592 -s 2 -d 6 -p tcp -e 1040 -c 1 -i 18 -a 1 -x {3.0 8.0 1 ------- null}
h -t 1.209592 -s 6 -d 11 -p tcp -e 1040 -c 1 -i 18 -a 1 -x {3.0 8.0 1 ------- null}
r -t 1.211616 -s 10 -d 2 -p cbr -e 500 -c 2 -i 25 -a 2 -x {0.0 7.0 21 ------- null}
+ -t 1.211616 -s 2 -d 6 -p cbr -e 500 -c 2 -i 25 -a 2 -x {0.0 7.0 21 ------- null}
- -t 1.211728 -s 2 -d 6 -p cbr -e 500 -c 2 -i 25 -a 2 -x {0.0 7.0 21 ------- null}
h -t 1.211728 -s 2 -d 6 -p cbr -e 500 -c 2 -i 25 -a 2 -x {0.0 7.0 -1 ------- null}
r -t 1.213592 -s 2 -d 6 -p cbr -e 500 -c 2 -i 20 -a 2 -x {0.0 7.0 16 ------- null}
h -t 1.213592 -s 6 -d 11 -p cbr -e 500 -c 2 -i 20 -a 2 -x {0.0 7.0 16 ------- null}
h -t 1.21428571428571 -s 0 -d 10 -p cbr -e 500 -c 2 -i 28 -a 2 -x {0.0 7.0 24 ------- null}
+ -t 1.21535714285714 -s 0 -d 10 -p cbr -e 500 -c 2 -i 27 -a 2 -x {0.0 7.0 23 ------- null}
- -t 1.21535714285714 -s 0 -d 10 -p cbr -e 500 -c 2 -i 27 -a 2 -x {0.0 7.0 23 ------- null}
h -t 1.21535714285714 -s 0 -d 10 -p cbr -e 500 -c 2 -i 27 -a 2 -x {0.0 7.0 -1 ------- null}
r -t 1.21616057142857 -s 11 -d 7 -p cbr -e 500 -c 2 -i 17 -a 2 -x {0.0 7.0 15 ------- null}
r -t 1.217592 -s 2 -d 6 -p cbr -e 500 -c 2 -i 21 -a 2 -x {0.0 7.0 17 ------- null}
h -t 1.217592 -s 6 -d 11 -p cbr -e 500 -c 2 -i 21 -a 2 -x {0.0 7.0 17 ------- null}
+ -t 1.219592 -s 6 -d 11 -p tcp -e 1040 -c 1 -i 18 -a 1 -x {3.0 8.0 1 ------- null}
- -t 1.219592 -s 6 -d 11 -p tcp -e 1040 -c 1 -i 18 -a 1 -x {3.0 8.0 1 ------- null}
h -t 1.219592 -s 6 -d 11 -p tcp -e 1040 -c 1 -i 18 -a 1 -x {3.0 8.0 -1 ------- null}
r -t 1.22054457142857 -s 10 -d 2 -p cbr -e 500 -c 2 -i 26 -a 2 -x {0.0 7.0 22 ------- null}
+ -t 1.22054457142857 -s 2 -d 6 -p cbr -e 500 -c 2 -i 26 -a 2 -x {0.0 7.0 22 ------- null}
- -t 1.22054457142857 -s 2 -d 6 -p cbr -e 500 -c 2 -i 26 -a 2 -x {0.0 7.0 22 ------- null}
h -t 1.22054457142857 -s 2 -d 6 -p cbr -e 500 -c 2 -i 26 -a 2 -x {0.0 7.0 -1 ------- null}
r -t 1.221592 -s 2 -d 6 -p cbr -e 500 -c 2 -i 22 -a 2 -x {0.0 7.0 18 ------- null}
h -t 1.221592 -s 6 -d 11 -p cbr -e 500 -c 2 -i 22 -a 2 -x {0.0 7.0 18 ------- null}
h -t 1.22321428571428 -s 0 -d 10 -p cbr -e 500 -c 2 -i 29 -a 2 -x {0.0 7.0 25 ------- null}
+ -t 1.223592 -s 6 -d 11 -p cbr -e 500 -c 2 -i 20 -a 2 -x {0.0 7.0 16 ------- null}
+ -t 1.22428571428571 -s 0 -d 10 -p cbr -e 500 -c 2 -i 28 -a 2 -x {0.0 7.0 24 ------- null}
- -t 1.22428571428571 -s 0 -d 10 -p cbr -e 500 -c 2 -i 28 -a 2 -x {0.0 7.0 24 ------- null}
h -t 1.22428571428571 -s 0 -d 10 -p cbr -e 500 -c 2 -i 28 -a 2 -x {0.0 7.0 -1 ------- null}