h 1 0 10 cbr 500 ------- 2 0.0 7.0 0 0
h 1 3 10 tcp 40 ------- 1 3.0 8.0 0 1
h 1.008929 0 10 cbr 500 ------- 2 0.0 7.0 1 2
+ 1.01 0 10 cbr 500 ------- 2 0.0 7.0 0 0
- 1.01 0 10 cbr 500 ------- 2 0.0 7.0 0 0
+ 1.01 3 10 tcp 40 ------- 1 3.0 8.0 0 1
- 1.01 3 10 tcp 40 ------- 1 3.0 8.0 0 1
h 1.017857 0 10 cbr 500 ------- 2 0.0 7.0 2 3
+ 1.018929 0 10 cbr 500 ------- 2 0.0 7.0 1 2
- 1.018929 0 10 cbr 500 ------- 2 0.0 7.0 1 2
r 1.020648 10 2 tcp 40 ------- 1 3.0 8.0 0 1
+ 1.020648 2 6 tcp 40 ------- 1 3.0 8.0 0 1
- 1.020648 2 6 tcp 40 ------- 1 3.0 8.0 0 1
r 1.02486 10 2 cbr 500 ------- 2 0.0 7.0 0 0
+ 1.02486 2 6 cbr 500 ------- 2 0.0 7.0 0 0
- 1.02486 2 6 cbr 500 ------- 2 0.0 7.0 0 0
h 1.026786 0 10 cbr 500 ------- 2 0.0 7.0 3 4
+ 1.027857 0 10 cbr 500 ------- 2 0.0 7.0 2 3
- 1.027857 0 10 cbr 500 ------- 2 0.0 7.0 2 3
r 1.033045 10 2 cbr 500 ------- 2 0.0 7.0 1 2
+ 1.033045 2 6 cbr 500 ------- 2 0.0 7.0 1 2
- 1.033045 2 6 cbr 500 ------- 2 0.0 7.0 1 2
h 1.035714 0 10 cbr 500 ------- 2 0.0 7.0 4 5
+ 1.036786 0 10 cbr 500 ------- 2 0.0 7.0 3 4
- 1.036786 0 10 cbr 500 ------- 2 0.0 7.0 3 4
r 1.041973 10 2 cbr 500 ------- 2 0.0 7.0 2 3
+ 1.041973 2 6 cbr 500 ------- 2 0.0 7.0 2 3
- 1.041973 2 6 cbr 500 ------- 2 0.0 7.0 2 3
h 1.044643 0 10 cbr 500 ------- 2 0.0 7.0 5 6
+ 1.045714 0 10 cbr 500 ------- 2 0.0 7.0 4 5
- 1.045714 0 10 cbr 500 ------- 2 0.0 7.0 4 5
r 1.050902 10 2 cbr 500 ------- 2 0.0 7.0 3 4
+ 1.050902 2 6 cbr 500 ------- 2 0.0 7.0 3 4
- 1.050902 2 6 cbr 500 ------- 2 0.0 7.0 3 4
r 1.050968 2 6 tcp 40 ------- 1 3.0 8.0 0 1
h 1.050968 6 11 tcp 40 ------- 1 3.0 8.0 0 1
h 1.053571 0 10 cbr 500 ------- 2 0.0 7.0 6 7
+ 1.054643 0 10 cbr 500 ------- 2 0.0 7.0 5 6
- 1.054643 0 10 cbr 500 ------- 2 0.0 7.0 5 6
r 1.05886 2 6 cbr 500 ------- 2 0.0 7.0 0 0
h 1.05886 6 11 cbr 500 ------- 2 0.0 7.0 0 0
r 1.05983 10 2 cbr 500 ------- 2 0.0 7.0 4 5
+ 1.05983 2 6 cbr 500 ------- 2 0.0 7.0 4 5
- 1.05983 2 6 cbr 500 ------- 2 0.0 7.0 4 5
+ 1.060968 6 11 tcp 40 ------- 1 3.0 8.0 0 1
- 1.060968 6 11 tcp 40 ------- 1 3.0 8.0 0 1
h 1.0625 0 10 cbr 500 ------- 2 0.0 7.0 7 8
+ 1.063571 0 10 cbr 500 ------- 2 0.0 7.0 6 7
- 1.063571 0 10 cbr 500 ------- 2 0.0 7.0 6 7
r 1.067045 2 6 cbr 500 ------- 2 0.0 7.0 1 2
h 1.067045 6 11 cbr 500 ------- 2 0.0 7.0 1 2
r 1.068759 10 2 cbr 500 ------- 2 0.0 7.0 5 6
+ 1.068759 2 6 cbr 500 ------- 2 0.0 7.0 5 6
- 1.068759 2 6 cbr 500 ------- 2 0.0 7.0 5 6
+ 1.06886 6 11 cbr 500 ------- 2 0.0 7.0 0 0
- 1.06886 6 11 cbr 500 ------- 2 0.0 7.0 0 0
h 1.071429 0 10 cbr 500 ------- 2 0.0 7.0 8 9
r 1.071484 11 8 tcp 40 ------- 1 3.0 8.0 0 1
h 1.071484 8 11 ack 40 ------- 1 8.0 3.0 0 10
+ 1.0725 0 10 cbr 500 ------- 2 0.0 7.0 7 8
- 1.0725 0 10 cbr 500 ------- 2 0.0 7.0 7 8
r 1.075973 2 6 cbr 500 ------- 2 0.0 7.0 2 3
h 1.075973 6 11 cbr 500 ------- 2 0.0 7.0 2 3
+ 1.077045 6 11 cbr 500 ------- 2 0.0 7.0 1 2
- 1.077045 6 11 cbr 500 ------- 2 0.0 7.0 1 2
r 1.077687 10 2 cbr 500 ------- 2 0.0 7.0 6 7
+ 1.077687 2 6 cbr 500 ------- 2 0.0 7.0 6 7
- 1.077687 2 6 cbr 500 ------- 2 0.0 7.0 6 7
h 1.080357 0 10 cbr 500 ------- 2 0.0 7.0 9 11
+ 1.081429 0 10 cbr 500 ------- 2 0.0 7.0 8 9
- 1.081429 0 10 cbr 500 ------- 2 0.0 7.0 8 9
+ 1.081484 8 11 ack 40 ------- 1 8.0 3.0 0 10
- 1.081484 8 11 ack 40 ------- 1 8.0 3.0 0 10
r 1.082976 11 7 cbr 500 ------- 2 0.0 7.0 0 0
r 1.084902 2 6 cbr 500 ------- 2 0.0 7.0 3 4
h 1.084902 6 11 cbr 500 ------- 2 0.0 7.0 3 4
+ 1.085973 6 11 cbr 500 ------- 2 0.0 7.0 2 3
- 1.085973 6 11 cbr 500 ------- 2 0.0 7.0 2 3
r 1.086616 10 2 cbr 500 ------- 2 0.0 7.0 7 8
+ 1.086616 2 6 cbr 500 ------- 2 0.0 7.0 7 8
- 1.086616 2 6 cbr 500 ------- 2 0.0 7.0 7 8
h 1.089286 0 10 cbr 500 ------- 2 0.0 7.0 10 12
+ 1.090357 0 10 cbr 500 ------- 2 0.0 7.0 9 11
- 1.090357 0 10 cbr 500 ------- 2 0.0 7.0 9 11
r 1.091161 11 7 cbr 500 ------- 2 0.0 7.0 1 2
r 1.092 11 6 ack 40 ------- 1 8.0 3.0 0 10
+ 1.092 6 2 ack 40 ------- 1 8.0 3.0 0 10
- 1.092 6 2 ack 40 ------- 1 8.0 3.0 0 10
r 1.09383 2 6 cbr 500 ------- 2 0.0 7.0 4 5
h 1.09383 6 11 cbr 500 ------- 2 0.0 7.0 4 5
+ 1.094902 6 11 cbr 500 ------- 2 0.0 7.0 3 4
- 1.094902 6 11 cbr 500 ------- 2 0.0 7.0 3 4
r 1.095545 10 2 cbr 500 ------- 2 0.0 7.0 8 9
d 1.095545 2 6 cbr 500 ------- 2 0.0 7.0 8 9
h 1.098214 0 10 cbr 500 ------- 2 0.0 7.0 11 13
+ 1.099286 0 10 cbr 500 ------- 2 0.0 7.0 10 12
- 1.099286 0 10 cbr 500 ------- 2 0.0 7.0 10 12
r 1.100089 11 7 cbr 500 ------- 2 0.0 7.0 2 3
r 1.102759 2 6 cbr 500 ------- 2 0.0 7.0 5 6
h 1.102759 6 11 cbr 500 ------- 2 0.0 7.0 5 6
+ 1.10383 6 11 cbr 500 ------- 2 0.0 7.0 4 5
- 1.10383 6 11 cbr 500 ------- 2 0.0 7.0 4 5
r 1.104473 10 2 cbr 500 ------- 2 0.0 7.0 9 11
+ 1.104473 2 6 cbr 500 ------- 2 0.0 7.0 9 11
- 1.104473 2 6 cbr 500 ------- 2 0.0 7.0 9 11
h 1.107143 0 10 cbr 500 ------- 2 0.0 7.0 12 14
+ 1.108214 0 10 cbr 500 ------- 2 0.0 7.0 11 13
- 1.108214 0 10 cbr 500 ------- 2 0.0 7.0 11 13
r 1.109018 11 7 cbr 500 ------- 2 0.0 7.0 3 4
r 1.111687 2 6 cbr 500 ------- 2 0.0 7.0 6 7
h 1.111687 6 11 cbr 500 ------- 2 0.0 7.0 6 7
+ 1.112759 6 11 cbr 500 ------- 2 0.0 7.0 5 6
- 1.112759 6 11 cbr 500 ------- 2 0.0 7.0 5 6
r 1.113402 10 2 cbr 500 ------- 2 0.0 7.0 10 12
+ 1.113402 2 6 cbr 500 ------- 2 0.0 7.0 10 12
- 1.113402 2 6 cbr 500 ------- 2 0.0 7.0 10 12
h 1.116071 0 10 cbr 500 ------- 2 0.0 7.0 13 15
+ 1.117143 0 10 cbr 500 ------- 2 0.0 7.0 12 14
- 1.117143 0 10 cbr 500 ------- 2 0.0 7.0 12 14
r 1.117946 11 7 cbr 500 ------- 2 0.0 7.0 4 5
r 1.120616 2 6 cbr 500 ------- 2 0.0 7.0 7 8
h 1.120616 6 11 cbr 500 ------- 2 0.0 7.0 7 8
+ 1.121687 6 11 cbr 500 ------- 2 0.0 7.0 6 7
- 1.121687 6 11 cbr 500 ------- 2 0.0 7.0 6 7
r 1.12232 6 2 ack 40 ------- 1 8.0 3.0 0 10
h 1.12232 2 10 ack 40 ------- 1 8.0 3.0 0 10
r 1.12233 10 2 cbr 500 ------- 2 0.0 7.0 11 13
+ 1.12233 2 6 cbr 500 ------- 2 0.0 7.0 11 13
- 1.12233 2 6 cbr 500 ------- 2 0.0 7.0 11 13
h 1.125 0 10 cbr 500 ------- 2 0.0 7.0 14 16
+ 1.126071 0 10 cbr 500 ------- 2 0.0 7.0 13 15
- 1.126071 0 10 cbr 500 ------- 2 0.0 7.0 13 15
r 1.126875 11 7 cbr 500 ------- 2 0.0 7.0 5 6
+ 1.130616 6 11 cbr 500 ------- 2 0.0 7.0 7 8
- 1.130616 6 11 cbr 500 ------- 2 0.0 7.0 7 8
r 1.131259 10 2 cbr 500 ------- 2 0.0 7.0 12 14
+ 1.131259 2 6 cbr 500 ------- 2 0.0 7.0 12 14
- 1.131259 2 6 cbr 500 ------- 2 0.0 7.0 12 14
+ 1.13232 2 10 ack 40 ------- 1 8.0 3.0 0 10
- 1.13232 2 10 ack 40 ------- 1 8.0 3.0 0 10
h 1.133929 0 10 cbr 500 ------- 2 0.0 7.0 15 17
+ 1.135 0 10 cbr 500 ------- 2 0.0 7.0 14 16
- 1.135 0 10 cbr 500 ------- 2 0.0 7.0 14 16
r 1.135803 11 7 cbr 500 ------- 2 0.0 7.0 6 7
r 1.138473 2 6 cbr 500 ------- 2 0.0 7.0 9 11
h 1.138473 6 11 cbr 500 ------- 2 0.0 7.0 9 11
r 1.140187 10 2 cbr 500 ------- 2 0.0 7.0 13 15
+ 1.140187 2 6 cbr 500 ------- 2 0.0 7.0 13 15
- 1.140187 2 6 cbr 500 ------- 2 0.0 7.0 13 15
r 1.142836 10 3 ack 40 ------- 1 8.0 3.0 0 10
h 1.142836 3 10 tcp 1040 ------- 1 3.0 8.0 1 18
h 1.142836 3 10 tcp 1040 ------- 1 3.0 8.0 2 19
h 1.142857 0 10 cbr 500 ------- 2 0.0 7.0 16 20
+ 1.143929 0 10 cbr 500 ------- 2 0.0 7.0 15 17
- 1.143929 0 10 cbr 500 ------- 2 0.0 7.0 15 17
r 1.144732 11 7 cbr 500 ------- 2 0.0 7.0 7 8
r 1.147402 2 6 cbr 500 ------- 2 0.0 7.0 10 12
h 1.147402 6 11 cbr 500 ------- 2 0.0 7.0 10 12
+ 1.148473 6 11 cbr 500 ------- 2 0.0 7.0 9 11
- 1.148473 6 11 cbr 500 ------- 2 0.0 7.0 9 11
r 1.149116 10 2 cbr 500 ------- 2 0.0 7.0 14 16
d 1.149116 2 6 cbr 500 ------- 2 0.0 7.0 14 16
h 1.151786 0 10 cbr 500 ------- 2 0.0 7.0 17 21
+ 1.152836 3 10 tcp 1040 ------- 1 3.0 8.0 1 18
- 1.152836 3 10 tcp 1040 ------- 1 3.0 8.0 1 18
+ 1.152836 3 10 tcp 1040 ------- 1 3.0 8.0 2 19
+ 1.152857 0 10 cbr 500 ------- 2 0.0 7.0 16 20
- 1.152857 0 10 cbr 500 ------- 2 0.0 7.0 16 20
r 1.15633 2 6 cbr 500 ------- 2 0.0 7.0 11 13
h 1.15633 6 11 cbr 500 ------- 2 0.0 7.0 11 13
+ 1.157402 6 11 cbr 500 ------- 2 0.0 7.0 10 12
- 1.157402 6 11 cbr 500 ------- 2 0.0 7.0 10 12
r 1.158045 10 2 cbr 500 ------- 2 0.0 7.0 15 17
+ 1.158045 2 6 cbr 500 ------- 2 0.0 7.0 15 17
- 1.158045 2 6 cbr 500 ------- 2 0.0 7.0 15 17
h 1.160714 0 10 cbr 500 ------- 2 0.0 7.0 18 22
- 1.161364 3 10 tcp 1040 ------- 1 3.0 8.0 2 19
+ 1.161786 0 10 cbr 500 ------- 2 0.0 7.0 17 21
r 1.162589 11 7 cbr 500 ------- 2 0.0 7.0 9 11
r 1.165259 2 6 cbr 500 ------- 2 0.0 7.0 12 14
h 1.165259 6 11 cbr 500 ------- 2 0.0 7.0 12 14
+ 1.16633 6 11 cbr 500 ------- 2 0.0 7.0 11 13
- 1.16633 6 11 cbr 500 ------- 2 0.0 7.0 11 13
- 1.166864 0 10 cbr 500 ------- 2 0.0 7.0 17 21
h 1.169643 0 10 cbr 500 ------- 2 0.0 7.0 19 23
+ 1.170714 0 10 cbr 500 ------- 2 0.0 7.0 18 22
r 1.171272 10 2 tcp 1040 ------- 1 3.0 8.0 1 18
+ 1.171272 2 6 tcp 1040 ------- 1 3.0 8.0 1 18
- 1.171272 2 6 tcp 1040 ------- 1 3.0 8.0 1 18
r 1.171518 11 7 cbr 500 ------- 2 0.0 7.0 10 12
- 1.17172 0 10 cbr 500 ------- 2 0.0 7.0 18 22
r 1.174187 2 6 cbr 500 ------- 2 0.0 7.0 13 15
h 1.174187 6 11 cbr 500 ------- 2 0.0 7.0 13 15
+ 1.175259 6 11 cbr 500 ------- 2 0.0 7.0 12 14
- 1.175259 6 11 cbr 500 ------- 2 0.0 7.0 12 14
r 1.176772 10 2 cbr 500 ------- 2 0.0 7.0 16 20
+ 1.176772 2 6 cbr 500 ------- 2 0.0 7.0 16 20
h 1.178571 0 10 cbr 500 ------- 2 0.0 7.0 20 24
- 1.179592 2 6 cbr 500 ------- 2 0.0 7.0 16 20
+ 1.179643 0 10 cbr 500 ------- 2 0.0 7.0 19 23
- 1.179643 0 10 cbr 500 ------- 2 0.0 7.0 19 23
r 1.180446 11 7 cbr 500 ------- 2 0.0 7.0 11 13
r 1.181628 10 2 cbr 500 ------- 2 0.0 7.0 17 21
+ 1.181628 2 6 cbr 500 ------- 2 0.0 7.0 17 21
- 1.183592 2 6 cbr 500 ------- 2 0.0 7.0 17 21
+ 1.184187 6 11 cbr 500 ------- 2 0.0 7.0 13 15
- 1.184187 6 11 cbr 500 ------- 2 0.0 7.0 13 15
r 1.185972 10 2 cbr 500 ------- 2 0.0 7.0 18 22
+ 1.185972 2 6 cbr 500 ------- 2 0.0 7.0 18 22
h 1.1875 0 10 cbr 500 ------- 2 0.0 7.0 21 25
- 1.187592 2 6 cbr 500 ------- 2 0.0 7.0 18 22
+ 1.188571 0 10 cbr 500 ------- 2 0.0 7.0 20 24
r 1.189375 11 7 cbr 500 ------- 2 0.0 7.0 12 14
- 1.189712 0 10 cbr 500 ------- 2 0.0 7.0 20 24
r 1.192045 2 6 cbr 500 ------- 2 0.0 7.0 15 17
h 1.192045 6 11 cbr 500 ------- 2 0.0 7.0 15 17
r 1.195408 10 2 tcp 1040 ------- 1 3.0 8.0 2 19
+ 1.195408 2 6 tcp 1040 ------- 1 3.0 8.0 2 19
- 1.195408 2 6 tcp 1040 ------- 1 3.0 8.0 2 19
h 1.196429 0 10 cbr 500 ------- 2 0.0 7.0 22 26
+ 1.1975 0 10 cbr 500 ------- 2 0.0 7.0 21 25
- 1.1975 0 10 cbr 500 ------- 2 0.0 7.0 21 25
r 1.198303 11 7 cbr 500 ------- 2 0.0 7.0 13 15
r 1.19962 10 2 cbr 500 ------- 2 0.0 7.0 19 23
+ 1.19962 2 6 cbr 500 ------- 2 0.0 7.0 19 23
+ 1.202045 6 11 cbr 500 ------- 2 0.0 7.0 15 17
- 1.202045 6 11 cbr 500 ------- 2 0.0 7.0 15 17
- 1.203728 2 6 cbr 500 ------- 2 0.0 7.0 19 23
r 1.203828 10 2 cbr 500 ------- 2 0.0 7.0 20 24
+ 1.203828 2 6 cbr 500 ------- 2 0.0 7.0 20 24
h 1.205357 0 10 cbr 500 ------- 2 0.0 7.0 23 27
+ 1.206429 0 10 cbr 500 ------- 2 0.0 7.0 22 26
- 1.206429 0 10 cbr 500 ------- 2 0.0 7.0 22 26
- 1.207728 2 6 cbr 500 ------- 2 0.0 7.0 20 24
r 1.209592 2 6 tcp 1040 ------- 1 3.0 8.0 1 18
h 1.209592 6 11 tcp 1040 ------- 1 3.0 8.0 1 18
r 1.211616 10 2 cbr 500 ------- 2 0.0 7.0 21 25
+ 1.211616 2 6 cbr 500 ------- 2 0.0 7.0 21 25
- 1.211728 2 6 cbr 500 ------- 2 0.0 7.0 21 25
r 1.213592 2 6 cbr 500 ------- 2 0.0 7.0 16 20
h 1.213592 6 11 cbr 500 ------- 2 0.0 7.0 16 20
h 1.214286 0 10 cbr 500 ------- 2 0.0 7.0 24 28
+ 1.215357 0 10 cbr 500 ------- 2 0.0 7.0 23 27
- 1.215357 0 10 cbr 500 ------- 2 0.0 7.0 23 27
r 1.216161 11 7 cbr 500 ------- 2 0.0 7.0 15 17
r 1.217592 2 6 cbr 500 ------- 2 0.0 7.0 17 21
h 1.217592 6 11 cbr 500 ------- 2 0.0 7.0 17 21
+ 1.219592 6 11 tcp 1040 ------- 1 3.0 8.0 1 18
- 1.219592 6 11 tcp 1040 ------- 1 3.0 8.0 1 18
r 1.220545 10 2 cbr 500 ------- 2 0.0 7.0 22 26
+ 1.220545 2 6 cbr 500 ------- 2 0.0 7.0 22 26
- 1.220545 2 6 cbr 500 ------- 2 0.0 7.0 22 26
r 1.221592 2 6 cbr 500 ------- 2 0.0 7.0 18 22
h 1.221592 6 11 cbr 500 ------- 2 0.0 7.0 18 22
h 1.223214 0 10 cbr 500 ------- 2 0.0 7.0 25 29
+ 1.223592 6 11 cbr 500 ------- 2 0.0 7.0 16 20
+ 1.224286 0 10 cbr 500 ------- 2 0.0 7.0 24 28
- 1.224286 0 10 cbr 500 ------- 2 0.0 7.0 24 28
+ 1.227592 6 11 cbr 500 ------- 2 0.0 7.0 17 21
- 1.22812 6 11 cbr 500 ------- 2 0.0 7.0 16 20
r 1.229473 10 2 cbr 500 ------- 2 0.0 7.0 23 27
+ 1.229473 2 6 cbr 500 ------- 2 0.0 7.0 23 27
- 1.229473 2 6 cbr 500 ------- 2 0.0 7.0 23 27
+ 1.231592 6 11 cbr 500 ------- 2 0.0 7.0 18 22
h 1.232143 0 10 cbr 500 ------- 2 0.0 7.0 26 30
- 1.232328 6 11 cbr 500 ------- 2 0.0 7.0 17 21
+ 1.233214 0 10 cbr 500 ------- 2 0.0 7.0 25 29
- 1.233214 0 10 cbr 500 ------- 2 0.0 7.0 25 29
r 1.233728 2 6 tcp 1040 ------- 1 3.0 8.0 2 19
h 1.233728 6 11 tcp 1040 ------- 1 3.0 8.0 2 19
- 1.236536 6 11 cbr 500 ------- 2 0.0 7.0 18 22
r 1.237728 2 6 cbr 500 ------- 2 0.0 7.0 19 23
h 1.237728 6 11 cbr 500 ------- 2 0.0 7.0 19 23
r 1.238028 11 8 tcp 1040 ------- 1 3.0 8.0 1 18
h 1.238028 8 11 ack 40 ------- 1 8.0 3.0 1 31
r 1.238402 10 2 cbr 500 ------- 2 0.0 7.0 24 28
+ 1.238402 2 6 cbr 500 ------- 2 0.0 7.0 24 28
- 1.238402 2 6 cbr 500 ------- 2 0.0 7.0 24 28
h 1.241071 0 10 cbr 500 ------- 2 0.0 7.0 27 32
r 1.241728 2 6 cbr 500 ------- 2 0.0 7.0 20 24
h 1.241728 6 11 cbr 500 ------- 2 0.0 7.0 20 24
+ 1.242143 0 10 cbr 500 ------- 2 0.0 7.0 26 30
- 1.242143 0 10 cbr 500 ------- 2 0.0 7.0 26 30
r 1.242236 11 7 cbr 500 ------- 2 0.0 7.0 16 20
+ 1.243728 6 11 tcp 1040 ------- 1 3.0 8.0 2 19
- 1.243728 6 11 tcp 1040 ------- 1 3.0 8.0 2 19
r 1.245728 2 6 cbr 500 ------- 2 0.0 7.0 21 25
h 1.245728 6 11 cbr 500 ------- 2 0.0 7.0 21 25
r 1.246444 11 7 cbr 500 ------- 2 0.0 7.0 17 21
r 1.24733 10 2 cbr 500 ------- 2 0.0 7.0 25 29
+ 1.24733 2 6 cbr 500 ------- 2 0.0 7.0 25 29
- 1.24733 2 6 cbr 500 ------- 2 0.0 7.0 25 29
+ 1.247728 6 11 cbr 500 ------- 2 0.0 7.0 19 23
+ 1.248028 8 11 ack 40 ------- 1 8.0 3.0 1 31
- 1.248028 8 11 ack 40 ------- 1 8.0 3.0 1 31
h 1.25 0 10 cbr 500 ------- 2 0.0 7.0 28 33
r 1.250652 11 7 cbr 500 ------- 2 0.0 7.0 18 22
+ 1.251071 0 10 cbr 500 ------- 2 0.0 7.0 27 32
- 1.251071 0 10 cbr 500 ------- 2 0.0 7.0 27 32
+ 1.251728 6 11 cbr 500 ------- 2 0.0 7.0 20 24
- 1.252256 6 11 cbr 500 ------- 2 0.0 7.0 19 23
r 1.254545 2 6 cbr 500 ------- 2 0.0 7.0 22 26
h 1.254545 6 11 cbr 500 ------- 2 0.0 7.0 22 26
+ 1.255728 6 11 cbr 500 ------- 2 0.0 7.0 21 25
r 1.256259 10 2 cbr 500 ------- 2 0.0 7.0 26 30
d 1.256259 2 6 cbr 500 ------- 2 0.0 7.0 26 30
- 1.2566 6 11 cbr 500 ------- 2 0.0 7.0 20 24
h 1.258929 0 10 cbr 500 ------- 2 0.0 7.0 29 34
+ 1.26 0 10 cbr 500 ------- 2 0.0 7.0 28 33
- 1.26 0 10 cbr 500 ------- 2 0.0 7.0 28 33
r 1.262164 11 8 tcp 1040 ------- 1 3.0 8.0 2 19
h 1.262164 8 11 ack 40 ------- 1 8.0 3.0 2 35
r 1.263473 2 6 cbr 500 ------- 2 0.0 7.0 23 27
h 1.263473 6 11 cbr 500 ------- 2 0.0 7.0 23 27
- 1.263768 6 11 cbr 500 ------- 2 0.0 7.0 21 25
+ 1.264545 6 11 cbr 500 ------- 2 0.0 7.0 22 26
r 1.265187 10 2 cbr 500 ------- 2 0.0 7.0 27 32
+ 1.265187 2 6 cbr 500 ------- 2 0.0 7.0 27 32
- 1.265187 2 6 cbr 500 ------- 2 0.0 7.0 27 32
r 1.266508 11 7 cbr 500 ------- 2 0.0 7.0 19 23
h 1.267857 0 10 cbr 500 ------- 2 0.0 7.0 30 36
- 1.267976 6 11 cbr 500 ------- 2 0.0 7.0 22 26
+ 1.268929 0 10 cbr 500 ------- 2 0.0 7.0 29 34
- 1.268929 0 10 cbr 500 ------- 2 0.0 7.0 29 34
+ 1.272164 8 11 ack 40 ------- 1 8.0 3.0 2 35
r 1.272402 2 6 cbr 500 ------- 2 0.0 7.0 24 28
h 1.272402 6 11 cbr 500 ------- 2 0.0 7.0 24 28
- 1.273444 8 11 ack 40 ------- 1 8.0 3.0 2 35
+ 1.273473 6 11 cbr 500 ------- 2 0.0 7.0 23 27
- 1.273473 6 11 cbr 500 ------- 2 0.0 7.0 23 27
r 1.273676 11 7 cbr 500 ------- 2 0.0 7.0 20 24
r 1.274116 10 2 cbr 500 ------- 2 0.0 7.0 28 33
+ 1.274116 2 6 cbr 500 ------- 2 0.0 7.0 28 33
- 1.274116 2 6 cbr 500 ------- 2 0.0 7.0 28 33
h 1.276786 0 10 cbr 500 ------- 2 0.0 7.0 31 37
+ 1.277857 0 10 cbr 500 ------- 2 0.0 7.0 30 36
- 1.277857 0 10 cbr 500 ------- 2 0.0 7.0 30 36
r 1.277884 11 7 cbr 500 ------- 2 0.0 7.0 21 25
r 1.28133 2 6 cbr 500 ------- 2 0.0 7.0 25 29
h 1.28133 6 11 cbr 500 ------- 2 0.0 7.0 25 29
+ 1.282402 6 11 cbr 500 ------- 2 0.0 7.0 24 28
- 1.282402 6 11 cbr 500 ------- 2 0.0 7.0 24 28
r 1.28274 11 7 cbr 500 ------- 2 0.0 7.0 22 26
r 1.283045 10 2 cbr 500 ------- 2 0.0 7.0 29 34
+ 1.283045 2 6 cbr 500 ------- 2 0.0 7.0 29 34
- 1.283045 2 6 cbr 500 ------- 2 0.0 7.0 29 34
r 1.283352 11 6 ack 40 ------- 1 8.0 3.0 1 31
+ 1.283352 6 2 ack 40 ------- 1 8.0 3.0 1 31
- 1.283352 6 2 ack 40 ------- 1 8.0 3.0 1 31
r 1.28396 11 6 ack 40 ------- 1 8.0 3.0 2 35
+ 1.28396 6 2 ack 40 ------- 1 8.0 3.0 2 35
- 1.28396 6 2 ack 40 ------- 1 8.0 3.0 2 35
h 1.285714 0 10 cbr 500 ------- 2 0.0 7.0 32 38
+ 1.286786 0 10 cbr 500 ------- 2 0.0 7.0 31 37
- 1.286786 0 10 cbr 500 ------- 2 0.0 7.0 31 37
r 1.288172 11 7 cbr 500 ------- 2 0.0 7.0 23 27
+ 1.29133 6 11 cbr 500 ------- 2 0.0 7.0 25 29
- 1.29133 6 11 cbr 500 ------- 2 0.0 7.0 25 29
r 1.291973 10 2 cbr 500 ------- 2 0.0 7.0 30 36
+ 1.291973 2 6 cbr 500 ------- 2 0.0 7.0 30 36
- 1.291973 2 6 cbr 500 ------- 2 0.0 7.0 30 36
h 1.294643 0 10 cbr 500 ------- 2 0.0 7.0 33 39
+ 1.295714 0 10 cbr 500 ------- 2 0.0 7.0 32 38
- 1.295714 0 10 cbr 500 ------- 2 0.0 7.0 32 38
r 1.296518 11 7 cbr 500 ------- 2 0.0 7.0 24 28
r 1.299187 2 6 cbr 500 ------- 2 0.0 7.0 27 32
h 1.299187 6 11 cbr 500 ------- 2 0.0 7.0 27 32
r 1.300902 10 2 cbr 500 ------- 2 0.0 7.0 31 37
d 1.300902 2 6 cbr 500 ------- 2 0.0 7.0 31 37
h 1.303571 0 10 cbr 500 ------- 2 0.0 7.0 34 40
+ 1.304643 0 10 cbr 500 ------- 2 0.0 7.0 33 39
- 1.304643 0 10 cbr 500 ------- 2 0.0 7.0 33 39
r 1.305446 11 7 cbr 500 ------- 2 0.0 7.0 25 29
r 1.308116 2 6 cbr 500 ------- 2 0.0 7.0 28 33
h 1.308116 6 11 cbr 500 ------- 2 0.0 7.0 28 33
+ 1.309187 6 11 cbr 500 ------- 2 0.0 7.0 27 32
- 1.309187 6 11 cbr 500 ------- 2 0.0 7.0 27 32
r 1.30983 10 2 cbr 500 ------- 2 0.0 7.0 32 38
+ 1.30983 2 6 cbr 500 ------- 2 0.0 7.0 32 38
- 1.30983 2 6 cbr 500 ------- 2 0.0 7.0 32 38
h 1.3125 0 10 cbr 500 ------- 2 0.0 7.0 35 41
+ 1.313571 0 10 cbr 500 ------- 2 0.0 7.0 34 40
- 1.313571 0 10 cbr 500 ------- 2 0.0 7.0 34 40
r 1.313672 6 2 ack 40 ------- 1 8.0 3.0 1 31
h 1.313672 2 10 ack 40 ------- 1 8.0 3.0 1 31
r 1.31428 6 2 ack 40 ------- 1 8.0 3.0 2 35
h 1.31428 2 10 ack 40 ------- 1 8.0 3.0 2 35
r 1.317045 2 6 cbr 500 ------- 2 0.0 7.0 29 34
h 1.317045 6 11 cbr 500 ------- 2 0.0 7.0 29 34
+ 1.318116 6 11 cbr 500 ------- 2 0.0 7.0 28 33
- 1.318116 6 11 cbr 500 ------- 2 0.0 7.0 28 33
r 1.318759 10 2 cbr 500 ------- 2 0.0 7.0 33 39
+ 1.318759 2 6 cbr 500 ------- 2 0.0 7.0 33 39
- 1.318759 2 6 cbr 500 ------- 2 0.0 7.0 33 39
h 1.321429 0 10 cbr 500 ------- 2 0.0 7.0 36 42
+ 1.3225 0 10 cbr 500 ------- 2 0.0 7.0 35 41
- 1.3225 0 10 cbr 500 ------- 2 0.0 7.0 35 41
r 1.323303 11 7 cbr 500 ------- 2 0.0 7.0 27 32
+ 1.323672 2 10 ack 40 ------- 1 8.0 3.0 1 31
- 1.323672 2 10 ack 40 ------- 1 8.0 3.0 1 31
+ 1.32428 2 10 ack 40 ------- 1 8.0 3.0 2 35
r 1.325973 2 6 cbr 500 ------- 2 0.0 7.0 30 36
h 1.325973 6 11 cbr 500 ------- 2 0.0 7.0 30 36
+ 1.327045 6 11 cbr 500 ------- 2 0.0 7.0 29 34
- 1.327045 6 11 cbr 500 ------- 2 0.0 7.0 29 34
- 1.32732 2 10 ack 40 ------- 1 8.0 3.0 2 35
r 1.327687 10 2 cbr 500 ------- 2 0.0 7.0 34 40
+ 1.327687 2 6 cbr 500 ------- 2 0.0 7.0 34 40
- 1.327687 2 6 cbr 500 ------- 2 0.0 7.0 34 40
h 1.330357 0 10 cbr 500 ------- 2 0.0 7.0 37 43
+ 1.331429 0 10 cbr 500 ------- 2 0.0 7.0 36 42
- 1.331429 0 10 cbr 500 ------- 2 0.0 7.0 36 42
r 1.332232 11 7 cbr 500 ------- 2 0.0 7.0 28 33
+ 1.335973 6 11 cbr 500 ------- 2 0.0 7.0 30 36
- 1.335973 6 11 cbr 500 ------- 2 0.0 7.0 30 36
r 1.336616 10 2 cbr 500 ------- 2 0.0 7.0 35 41
+ 1.336616 2 6 cbr 500 ------- 2 0.0 7.0 35 41
- 1.336616 2 6 cbr 500 ------- 2 0.0 7.0 35 41
r 1.337228 10 3 ack 40 ------- 1 8.0 3.0 1 31
h 1.337228 3 10 tcp 1040 ------- 1 3.0 8.0 3 44
h 1.337228 3 10 tcp 1040 ------- 1 3.0 8.0 4 45
r 1.337836 10 3 ack 40 ------- 1 8.0 3.0 2 35
h 1.337836 3 10 tcp 1040 ------- 1 3.0 8.0 5 46
h 1.337836 3 10 tcp 1040 ------- 1 3.0 8.0 6 47
h 1.339286 0 10 cbr 500 ------- 2 0.0 7.0 38 48
+ 1.340357 0 10 cbr 500 ------- 2 0.0 7.0 37 43
- 1.340357 0 10 cbr 500 ------- 2 0.0 7.0 37 43
r 1.341161 11 7 cbr 500 ------- 2 0.0 7.0 29 34
r 1.34383 2 6 cbr 500 ------- 2 0.0 7.0 32 38
h 1.34383 6 11 cbr 500 ------- 2 0.0 7.0 32 38
r 1.345545 10 2 cbr 500 ------- 2 0.0 7.0 36 42
+ 1.345545 2 6 cbr 500 ------- 2 0.0 7.0 36 42
- 1.345545 2 6 cbr 500 ------- 2 0.0 7.0 36 42
+ 1.347228 3 10 tcp 1040 ------- 1 3.0 8.0 3 44
- 1.347228 3 10 tcp 1040 ------- 1 3.0 8.0 3 44
+ 1.347228 3 10 tcp 1040 ------- 1 3.0 8.0 4 45
+ 1.347836 3 10 tcp 1040 ------- 1 3.0 8.0 5 46
+ 1.347836 3 10 tcp 1040 ------- 1 3.0 8.0 6 47
h 1.348214 0 10 cbr 500 ------- 2 0.0 7.0 39 49
+ 1.349286 0 10 cbr 500 ------- 2 0.0 7.0 38 48
- 1.349286 0 10 cbr 500 ------- 2 0.0 7.0 38 48
r 1.350089 11 7 cbr 500 ------- 2 0.0 7.0 30 36
r 1.352759 2 6 cbr 500 ------- 2 0.0 7.0 33 39
h 1.352759 6 11 cbr 500 ------- 2 0.0 7.0 33 39
+ 1.35383 6 11 cbr 500 ------- 2 0.0 7.0 32 38
- 1.35383 6 11 cbr 500 ------- 2 0.0 7.0 32 38
r 1.354473 10 2 cbr 500 ------- 2 0.0 7.0 37 43
+ 1.354473 2 6 cbr 500 ------- 2 0.0 7.0 37 43
- 1.354473 2 6 cbr 500 ------- 2 0.0 7.0 37 43
- 1.355756 3 10 tcp 1040 ------- 1 3.0 8.0 4 45
h 1.357143 0 10 cbr 500 ------- 2 0.0 7.0 40 50
+ 1.358214 0 10 cbr 500 ------- 2 0.0 7.0 39 49
r 1.361687 2 6 cbr 500 ------- 2 0.0 7.0 34 40
h 1.361687 6 11 cbr 500 ------- 2 0.0 7.0 34 40
+ 1.362759 6 11 cbr 500 ------- 2 0.0 7.0 33 39
- 1.362759 6 11 cbr 500 ------- 2 0.0 7.0 33 39
- 1.36506 3 10 tcp 1040 ------- 1 3.0 8.0 5 46
r 1.365664 10 2 tcp 1040 ------- 1 3.0 8.0 3 44
+ 1.365664 2 6 tcp 1040 ------- 1 3.0 8.0 3 44
- 1.365664 2 6 tcp 1040 ------- 1 3.0 8.0 3 44
h 1.366071 0 10 cbr 500 ------- 2 0.0 7.0 41 51
+ 1.367143 0 10 cbr 500 ------- 2 0.0 7.0 40 50
r 1.367946 11 7 cbr 500 ------- 2 0.0 7.0 32 38
r 1.370616 2 6 cbr 500 ------- 2 0.0 7.0 35 41
h 1.370616 6 11 cbr 500 ------- 2 0.0 7.0 35 41
+ 1.371687 6 11 cbr 500 ------- 2 0.0 7.0 34 40
- 1.371687 6 11 cbr 500 ------- 2 0.0 7.0 34 40
- 1.374236 3 10 tcp 1040 ------- 1 3.0 8.0 6 47
r 1.374968 10 2 tcp 1040 ------- 1 3.0 8.0 4 45
+ 1.374968 2 6 tcp 1040 ------- 1 3.0 8.0 4 45
- 1.374968 2 6 tcp 1040 ------- 1 3.0 8.0 4 45
h 1.375 0 10 cbr 500 ------- 2 0.0 7.0 42 52
+ 1.376071 0 10 cbr 500 ------- 2 0.0 7.0 41 51
r 1.376875 11 7 cbr 500 ------- 2 0.0 7.0 33 39
r 1.379545 2 6 cbr 500 ------- 2 0.0 7.0 36 42
h 1.379545 6 11 cbr 500 ------- 2 0.0 7.0 36 42
+ 1.380616 6 11 cbr 500 ------- 2 0.0 7.0 35 41
- 1.380616 6 11 cbr 500 ------- 2 0.0 7.0 35 41
h 1.383929 0 10 cbr 500 ------- 2 0.0 7.0 43 53
r 1.384144 10 2 tcp 1040 ------- 1 3.0 8.0 5 46
d 1.384144 2 6 tcp 1040 ------- 1 3.0 8.0 5 46
+ 1.385 0 10 cbr 500 ------- 2 0.0 7.0 42 52
r 1.385803 11 7 cbr 500 ------- 2 0.0 7.0 34 40
- 1.387112 0 10 cbr 500 ------- 2 0.0 7.0 39 49
r 1.388473 2 6 cbr 500 ------- 2 0.0 7.0 37 43
h 1.388473 6 11 cbr 500 ------- 2 0.0 7.0 37 43
+ 1.389545 6 11 cbr 500 ------- 2 0.0 7.0 36 42
- 1.389545 6 11 cbr 500 ------- 2 0.0 7.0 36 42
- 1.39132 0 10 cbr 500 ------- 2 0.0 7.0 40 50
r 1.392808 10 2 tcp 1040 ------- 1 3.0 8.0 6 47
+ 1.392808 2 6 tcp 1040 ------- 1 3.0 8.0 6 47
- 1.392808 2 6 tcp 1040 ------- 1 3.0 8.0 6 47
h 1.392857 0 10 cbr 500 ------- 2 0.0 7.0 44 54
+ 1.393929 0 10 cbr 500 ------- 2 0.0 7.0 43 53
r 1.394732 11 7 cbr 500 ------- 2 0.0 7.0 35 41
- 1.395528 0 10 cbr 500 ------- 2 0.0 7.0 41 51
r 1.39702 10 2 cbr 500 ------- 2 0.0 7.0 38 48
+ 1.39702 2 6 cbr 500 ------- 2 0.0 7.0 38 48
+ 1.398473 6 11 cbr 500 ------- 2 0.0 7.0 37 43
- 1.398473 6 11 cbr 500 ------- 2 0.0 7.0 37 43
- 1.399736 0 10 cbr 500 ------- 2 0.0 7.0 42 52
- 1.401128 2 6 cbr 500 ------- 2 0.0 7.0 38 48
r 1.401228 10 2 cbr 500 ------- 2 0.0 7.0 39 49
+ 1.401228 2 6 cbr 500 ------- 2 0.0 7.0 39 49
h 1.401786 0 10 cbr 500 ------- 2 0.0 7.0 45 55
+ 1.402857 0 10 cbr 500 ------- 2 0.0 7.0 44 54
r 1.403661 11 7 cbr 500 ------- 2 0.0 7.0 36 42
- 1.403944 0 10 cbr 500 ------- 2 0.0 7.0 43 53
r 1.403984 2 6 tcp 1040 ------- 1 3.0 8.0 3 44
h 1.403984 6 11 tcp 1040 ------- 1 3.0 8.0 3 44
- 1.405128 2 6 cbr 500 ------- 2 0.0 7.0 39 49
r 1.405436 10 2 cbr 500 ------- 2 0.0 7.0 40 50
+ 1.405436 2 6 cbr 500 ------- 2 0.0 7.0 40 50
- 1.408152 0 10 cbr 500 ------- 2 0.0 7.0 44 54
- 1.409128 2 6 cbr 500 ------- 2 0.0 7.0 40 50
r 1.409644 10 2 cbr 500 ------- 2 0.0 7.0 41 51
+ 1.409644 2 6 cbr 500 ------- 2 0.0 7.0 41 51
h 1.410714 0 10 cbr 500 ------- 2 0.0 7.0 46 56
+ 1.411786 0 10 cbr 500 ------- 2 0.0 7.0 45 55
- 1.41236 0 10 cbr 500 ------- 2 0.0 7.0 45 55
r 1.412589 11 7 cbr 500 ------- 2 0.0 7.0 37 43
- 1.413128 2 6 cbr 500 ------- 2 0.0 7.0 41 51
r 1.413288 2 6 tcp 1040 ------- 1 3.0 8.0 4 45
h 1.413288 6 11 tcp 1040 ------- 1 3.0 8.0 4 45
r 1.413852 10 2 cbr 500 ------- 2 0.0 7.0 42 52
+ 1.413852 2 6 cbr 500 ------- 2 0.0 7.0 42 52
+ 1.413984 6 11 tcp 1040 ------- 1 3.0 8.0 3 44
- 1.413984 6 11 tcp 1040 ------- 1 3.0 8.0 3 44
- 1.417128 2 6 cbr 500 ------- 2 0.0 7.0 42 52
r 1.41806 10 2 cbr 500 ------- 2 0.0 7.0 43 53
+ 1.41806 2 6 cbr 500 ------- 2 0.0 7.0 43 53
h 1.419643 0 10 cbr 500 ------- 2 0.0 7.0 47 57
+ 1.420714 0 10 cbr 500 ------- 2 0.0 7.0 46 56
- 1.420714 0 10 cbr 500 ------- 2 0.0 7.0 46 56
- 1.421128 2 6 cbr 500 ------- 2 0.0 7.0 43 53
r 1.422268 10 2 cbr 500 ------- 2 0.0 7.0 44 54
+ 1.422268 2 6 cbr 500 ------- 2 0.0 7.0 44 54
+ 1.423288 6 11 tcp 1040 ------- 1 3.0 8.0 4 45
- 1.423288 6 11 tcp 1040 ------- 1 3.0 8.0 4 45
- 1.425128 2 6 cbr 500 ------- 2 0.0 7.0 44 54
r 1.426476 10 2 cbr 500 ------- 2 0.0 7.0 45 55
+ 1.426476 2 6 cbr 500 ------- 2 0.0 7.0 45 55
h 1.428571 0 10 cbr 500 ------- 2 0.0 7.0 48 58
- 1.429128 2 6 cbr 500 ------- 2 0.0 7.0 45 55
+ 1.429643 0 10 cbr 500 ------- 2 0.0 7.0 47 57
- 1.429643 0 10 cbr 500 ------- 2 0.0 7.0 47 57
r 1.431128 2 6 tcp 1040 ------- 1 3.0 8.0 6 47
h 1.431128 6 11 tcp 1040 ------- 1 3.0 8.0 6 47
r 1.43242 11 8 tcp 1040 ------- 1 3.0 8.0 3 44
h 1.43242 8 11 ack 40 ------- 1 8.0 3.0 3 59
r 1.43483 10 2 cbr 500 ------- 2 0.0 7.0 46 56
+ 1.43483 2 6 cbr 500 ------- 2 0.0 7.0 46 56
- 1.43483 2 6 cbr 500 ------- 2 0.0 7.0 46 56
r 1.435128 2 6 cbr 500 ------- 2 0.0 7.0 38 48
h 1.435128 6 11 cbr 500 ------- 2 0.0 7.0 38 48
h 1.4375 0 10 cbr 500 ------- 2 0.0 7.0 49 60
+ 1.438571 0 10 cbr 500 ------- 2 0.0 7.0 48 58
- 1.438571 0 10 cbr 500 ------- 2 0.0 7.0 48 58
r 1.439128 2 6 cbr 500 ------- 2 0.0 7.0 39 49
h 1.439128 6 11 cbr 500 ------- 2 0.0 7.0 39 49
+ 1.441128 6 11 tcp 1040 ------- 1 3.0 8.0 6 47
- 1.441128 6 11 tcp 1040 ------- 1 3.0 8.0 6 47
r 1.441724 11 8 tcp 1040 ------- 1 3.0 8.0 4 45
h 1.441724 8 11 ack 40 ------- 1 8.0 3.0 4 61
+ 1.44242 8 11 ack 40 ------- 1 8.0 3.0 3 59
- 1.44242 8 11 ack 40 ------- 1 8.0 3.0 3 59
r 1.443128 2 6 cbr 500 ------- 2 0.0 7.0 40 50
h 1.443128 6 11 cbr 500 ------- 2 0.0 7.0 40 50
r 1.443759 10 2 cbr 500 ------- 2 0.0 7.0 47 57
+ 1.443759 2 6 cbr 500 ------- 2 0.0 7.0 47 57
- 1.443759 2 6 cbr 500 ------- 2 0.0 7.0 47 57
+ 1.445128 6 11 cbr 500 ------- 2 0.0 7.0 38 48
h 1.446429 0 10 cbr 500 ------- 2 0.0 7.0 50 62
r 1.447128 2 6 cbr 500 ------- 2 0.0 7.0 41 51
h 1.447128 6 11 cbr 500 ------- 2 0.0 7.0 41 51
+ 1.4475 0 10 cbr 500 ------- 2 0.0 7.0 49 60
- 1.4475 0 10 cbr 500 ------- 2 0.0 7.0 49 60
+ 1.449128 6 11 cbr 500 ------- 2 0.0 7.0 39 49
- 1.449656 6 11 cbr 500 ------- 2 0.0 7.0 38 48
r 1.451128 2 6 cbr 500 ------- 2 0.0 7.0 42 52
h 1.451128 6 11 cbr 500 ------- 2 0.0 7.0 42 52
+ 1.451724 8 11 ack 40 ------- 1 8.0 3.0 4 61
- 1.452068 8 11 ack 40 ------- 1 8.0 3.0 4 61
r 1.452687 10 2 cbr 500 ------- 2 0.0 7.0 48 58
d 1.452687 2 6 cbr 500 ------- 2 0.0 7.0 48 58
+ 1.453128 6 11 cbr 500 ------- 2 0.0 7.0 40 50
r 1.455128 2 6 cbr 500 ------- 2 0.0 7.0 43 53
h 1.455128 6 11 cbr 500 ------- 2 0.0 7.0 43 53
h 1.455357 0 10 cbr 500 ------- 2 0.0 7.0 51 63
+ 1.456429 0 10 cbr 500 ------- 2 0.0 7.0 50 62
- 1.456429 0 10 cbr 500 ------- 2 0.0 7.0 50 62
+ 1.457128 6 11 cbr 500 ------- 2 0.0 7.0 41 51
r 1.459128 2 6 cbr 500 ------- 2 0.0 7.0 44 54
h 1.459128 6 11 cbr 500 ------- 2 0.0 7.0 44 54
- 1.45948 6 11 cbr 500 ------- 2 0.0 7.0 39 49
r 1.459564 11 8 tcp 1040 ------- 1 3.0 8.0 6 47
h 1.459564 8 11 ack 40 ------- 1 8.0 3.0 4 64
+ 1.461128 6 11 cbr 500 ------- 2 0.0 7.0 42 52
r 1.461616 10 2 cbr 500 ------- 2 0.0 7.0 49 60
+ 1.461616 2 6 cbr 500 ------- 2 0.0 7.0 49 60
- 1.461616 2 6 cbr 500 ------- 2 0.0 7.0 49 60
r 1.461976 11 6 ack 40 ------- 1 8.0 3.0 3 59
+ 1.461976 6 2 ack 40 ------- 1 8.0 3.0 3 59
- 1.461976 6 2 ack 40 ------- 1 8.0 3.0 3 59
r 1.463128 2 6 cbr 500 ------- 2 0.0 7.0 45 55
h 1.463128 6 11 cbr 500 ------- 2 0.0 7.0 45 55
r 1.463232 11 6 ack 40 ------- 1 8.0 3.0 4 61
+ 1.463232 6 2 ack 40 ------- 1 8.0 3.0 4 61
- 1.463232 6 2 ack 40 ------- 1 8.0 3.0 4 61
- 1.463688 6 11 cbr 500 ------- 2 0.0 7.0 40 50
h 1.464286 0 10 cbr 500 ------- 2 0.0 7.0 52 65
+ 1.465128 6 11 cbr 500 ------- 2 0.0 7.0 43 53
+ 1.465357 0 10 cbr 500 ------- 2 0.0 7.0 51 63
- 1.465357 0 10 cbr 500 ------- 2 0.0 7.0 51 63
- 1.467896 6 11 cbr 500 ------- 2 0.0 7.0 41 51
r 1.46883 2 6 cbr 500 ------- 2 0.0 7.0 46 56
h 1.46883 6 11 cbr 500 ------- 2 0.0 7.0 46 56
+ 1.469128 6 11 cbr 500 ------- 2 0.0 7.0 44 54
r 1.469388 11 7 cbr 500 ------- 2 0.0 7.0 38 48
+ 1.469564 8 11 ack 40 ------- 1 8.0 3.0 4 64
- 1.469564 8 11 ack 40 ------- 1 8.0 3.0 4 64
r 1.470545 10 2 cbr 500 ------- 2 0.0 7.0 50 62
+ 1.470545 2 6 cbr 500 ------- 2 0.0 7.0 50 62
- 1.470545 2 6 cbr 500 ------- 2 0.0 7.0 50 62
- 1.472104 6 11 cbr 500 ------- 2 0.0 7.0 42 52
+ 1.473128 6 11 cbr 500 ------- 2 0.0 7.0 45 55
h 1.473214 0 10 cbr 500 ------- 2 0.0 7.0 53 66
r 1.473596 11 7 cbr 500 ------- 2 0.0 7.0 39 49
+ 1.474286 0 10 cbr 500 ------- 2 0.0 7.0 52 65
- 1.474286 0 10 cbr 500 ------- 2 0.0 7.0 52 65
- 1.476448 6 11 cbr 500 ------- 2 0.0 7.0 43 53
r 1.477759 2 6 cbr 500 ------- 2 0.0 7.0 47 57
h 1.477759 6 11 cbr 500 ------- 2 0.0 7.0 47 57
r 1.477804 11 7 cbr 500 ------- 2 0.0 7.0 40 50
+ 1.47883 6 11 cbr 500 ------- 2 0.0 7.0 46 56
r 1.479473 10 2 cbr 500 ------- 2 0.0 7.0 51 63
d 1.479473 2 6 cbr 500 ------- 2 0.0 7.0 51 63
- 1.480792 6 11 cbr 500 ------- 2 0.0 7.0 44 54