n -t * -s 0  -x 663 -y 484 -Z 0 -z 30  -v circle -c black
n -t * -s 1  -x 466 -y 407 -Z 0 -z 30  -v circle -c black
n -t * -s 2  -x 791 -y 406 -Z 0 -z 30  -v circle -c black
n -t * -s 3  -x 668 -y 393 -Z 0 -z 30  -v circle -c black
n -t * -s 4  -x 558 -y 320 -Z 0 -z 30  -v circle -c black
n -t * -s 5  -x 781 -y 317 -Z 0 -z 30  -v circle -c black
n -t * -s 6  -x 650 -y 40 -Z 0 -z 30  -v circle -c black
n -t * -s 7  -x 671 -y 194 -Z 0 -z 30  -v circle -c black
n -t * -s 8  -x 761 -y 234 -Z 0 -z 30  -v circle -c black
n -t * -s 9  -x 476 -y 117 -Z 0 -z 30  -v circle -c black
n -t * -s 10  -x 714 -y 121 -Z 0 -z 30  -v circle -c black
n -t * -s 11  -x 825 -y 140 -Z 0 -z 30  -v circle -c black
n -t * -s 12  -x 509 -y 34 -Z 0 -z 30  -v circle -c black
n -t * -s 13  -x 687 -y 36 -Z 0 -z 30  -v circle -c black
n -t * -s 14  -x 822 -y 51 -Z 0 -z 30  -v circle -c black
n -t * -s 15  -x 373 -y 271 -Z 0 -z 30  -v circle -c black
n -t * -s 16  -x 903 -y 255 -Z 0 -z 30  -v circle -c black
n -t * -s 17  -x 908 -y 344 -Z 0 -z 30  -v circle -c black
n -t * -s 18  -x 600 -y 180 -Z 0 -z 30  -v circle -c black
n -t * -s 19  -x 455 -y 479 -Z 0 -z 30  -v circle -c black
n -t * -s 20  -x 350 -y 434 -Z 0 -z 30  -v circle -c black
n -t * -s 21  -x 263 -y 306 -Z 0 -z 30  -v circle -c black
n -t * -s 22  -x 261 -y 209 -Z 0 -z 30  -v circle -c black
n -t * -s 23  -x 240 -y 115 -Z 0 -z 30  -v circle -c black
n -t * -s 24  -x 313 -y 29 -Z 0 -z 30  -v circle -c black
V -t * -v 1.0a5 -a 0
W -t * -x 1186 -y 584
A -t * -n 1 -p 0 -o 0xffffffff -c 31 -a 1
A -t * -h 1 -m 2147483647 -s 0
n -t 0 -s 7 -S COLOR -c red -o red -i red -I red
n -t 0 -s 13 -S COLOR -c red -o red -i red -I red
n -t 0 -s 20 -S COLOR -c green -o green -i green -I green
n -t 0 -s 21 -S COLOR -c green -o green -i green -I green
n -t 0 -s 17 -S COLOR -c blue -o blue -i blue -I blue
n -t 0 -s 9 -S COLOR -c blue -o blue -i blue -I blue
n -t 0.000000 -s 21 -x 263.000000 -y 306.000000 -U -23.465090 -V -32.394283 -T 4.815665
n -t 0.000000 -s 20 -x 350.000000 -y 434.000000 -U -23.031145 -V -32.704226 -T 8.683893
+ -t 1.000000000 -s 21 -d -1 -p cbr -e 1000 -c 2 -a 0 -i 0 -k AGT 
- -t 1.000000000 -s 21 -d -1 -p cbr -e 1000 -c 2 -a 0 -i 0 -k AGT
h -t 1.000000000 -s 21 -d -1 -p cbr -e 1000 -c 2 -a 0 -i 0 -k AGT
+ -t 1.000000000 -s 21 -d -1 -p AODV -e 48 -c 2 -a 0 -i 0 -k RTR 
- -t 1.000000000 -s 21 -d -1 -p AODV -e 48 -c 2 -a 0 -i 0 -k RTR
h -t 1.000000000 -s 21 -d -1 -p AODV -e 48 -c 2 -a 0 -i 0 -k RTR
+ -t 1.000535000 -s 21 -d -1 -p AODV -e 106 -c 2 -a 0 -i 0 -k MAC 
- -t 1.000535000 -s 21 -d -1 -p AODV -e 106 -c 2 -a 0 -i 0 -k MAC
h -t 1.000535000 -s 21 -d -1 -p AODV -e 106 -c 2 -a 0 -i 0 -k MAC
r -t 1.001383227 -s 22 -d -1 -p AODV -e 48 -c 2 -a 0 -i 0 -k MAC
r -t 1.001383445 -s 15 -d -1 -p AODV -e 48 -c 2 -a 0 -i 0 -k MAC
r -t 1.001383516 -s 20 -d -1 -p AODV -e 48 -c 2 -a 0 -i 0 -k MAC
r -t 1.001383529 -s 23 -d -1 -p AODV -e 48 -c 2 -a 0 -i 0 -k MAC
r -t 1.001408227 -s 22 -d -1 -p AODV -e 48 -c 2 -a 0 -i 0 -k RTR
r -t 1.001408445 -s 15 -d -1 -p AODV -e 48 -c 2 -a 0 -i 0 -k RTR
r -t 1.001408516 -s 20 -d -1 -p AODV -e 48 -c 2 -a 0 -i 0 -k RTR
r -t 1.001408529 -s 23 -d -1 -p AODV -e 48 -c 2 -a 0 -i 0 -k RTR
+ -t 1.001550273 -s 22 -d -1 -p AODV -e 48 -c 2 -a 0 -i 0 -k RTR 
- -t 1.001550273 -s 22 -d -1 -p AODV -e 48 -c 2 -a 0 -i 0 -k RTR
h -t 1.001550273 -s 22 -d -1 -p AODV -e 48 -c 2 -a 0 -i 0 -k RTR
+ -t 1.001785273 -s 22 -d -1 -p AODV -e 106 -c 2 -a 0 -i 0 -k MAC 
- -t 1.001785273 -s 22 -d -1 -p AODV -e 106 -c 2 -a 0 -i 0 -k MAC
h -t 1.001785273 -s 22 -d -1 -p AODV -e 106 -c 2 -a 0 -i 0 -k MAC
+ -t 1.002289672 -s 15 -d -1 -p AODV -e 48 -c 2 -a 0 -i 0 -k RTR 
- -t 1.002289672 -s 15 -d -1 -p AODV -e 48 -c 2 -a 0 -i 0 -k RTR
h -t 1.002289672 -s 15 -d -1 -p AODV -e 48 -c 2 -a 0 -i 0 -k RTR
r -t 1.002633500 -s 21 -d -1 -p AODV -e 48 -c 2 -a 0 -i 0 -k MAC
r -t 1.002633595 -s 23 -d -1 -p AODV -e 48 -c 2 -a 0 -i 0 -k MAC
r -t 1.002633700 -s 15 -d -1 -p AODV -e 48 -c 2 -a 0 -i 0 -k MAC
r -t 1.002633898 -s 24 -d -1 -p AODV -e 48 -c 2 -a 0 -i 0 -k MAC
r -t 1.002633951 -s 20 -d -1 -p AODV -e 48 -c 2 -a 0 -i 0 -k MAC
r -t 1.002634053 -s 9 -d -1 -p AODV -e 48 -c 2 -a 0 -i 0 -k MAC
r -t 1.002658500 -s 21 -d -1 -p AODV -e 48 -c 2 -a 0 -i 0 -k RTR
r -t 1.002658595 -s 23 -d -1 -p AODV -e 48 -c 2 -a 0 -i 0 -k RTR
r -t 1.002658700 -s 15 -d -1 -p AODV -e 48 -c 2 -a 0 -i 0 -k RTR
r -t 1.002658898 -s 24 -d -1 -p AODV -e 48 -c 2 -a 0 -i 0 -k RTR
r -t 1.002658951 -s 20 -d -1 -p AODV -e 48 -c 2 -a 0 -i 0 -k RTR
r -t 1.002659053 -s 9 -d -1 -p AODV -e 48 -c 2 -a 0 -i 0 -k RTR
+ -t 1.002883700 -s 15 -d -1 -p AODV -e 106 -c 2 -a 0 -i 0 -k MAC 
- -t 1.002883700 -s 15 -d -1 -p AODV -e 106 -c 2 -a 0 -i 0 -k MAC
h -t 1.002883700 -s 15 -d -1 -p AODV -e 106 -c 2 -a 0 -i 0 -k MAC
r -t 1.003732127 -s 22 -d -1 -p AODV -e 48 -c 2 -a 0 -i 0 -k MAC
r -t 1.003732145 -s 21 -d -1 -p AODV -e 48 -c 2 -a 0 -i 0 -k MAC
r -t 1.003732161 -s 20 -d -1 -p AODV -e 48 -c 2 -a 0 -i 0 -k MAC
r -t 1.003732249 -s 1 -d -1 -p AODV -e 48 -c 2 -a 0 -i 0 -k MAC
r -t 1.003732318 -s 9 -d -1 -p AODV -e 48 -c 2 -a 0 -i 0 -k MAC
r -t 1.003732338 -s 4 -d -1 -p AODV -e 48 -c 2 -a 0 -i 0 -k MAC
r -t 1.003732384 -s 23 -d -1 -p AODV -e 48 -c 2 -a 0 -i 0 -k MAC
r -t 1.003732445 -s 19 -d -1 -p AODV -e 48 -c 2 -a 0 -i 0 -k MAC
r -t 1.003732515 -s 18 -d -1 -p AODV -e 48 -c 2 -a 0 -i 0 -k MAC
r -t 1.003732531 -s 24 -d -1 -p AODV -e 48 -c 2 -a 0 -i 0 -k MAC
r -t 1.003757127 -s 22 -d -1 -p AODV -e 48 -c 2 -a 0 -i 0 -k RTR
r -t 1.003757145 -s 21 -d -1 -p AODV -e 48 -c 2 -a 0 -i 0 -k RTR
r -t 1.003757161 -s 20 -d -1 -p AODV -e 48 -c 2 -a 0 -i 0 -k RTR
r -t 1.003757249 -s 1 -d -1 -p AODV -e 48 -c 2 -a 0 -i 0 -k RTR
r -t 1.003757318 -s 9 -d -1 -p AODV -e 48 -c 2 -a 0 -i 0 -k RTR
r -t 1.003757338 -s 4 -d -1 -p AODV -e 48 -c 2 -a 0 -i 0 -k RTR
r -t 1.003757384 -s 23 -d -1 -p AODV -e 48 -c 2 -a 0 -i 0 -k RTR
r -t 1.003757445 -s 19 -d -1 -p AODV -e 48 -c 2 -a 0 -i 0 -k RTR
r -t 1.003757515 -s 18 -d -1 -p AODV -e 48 -c 2 -a 0 -i 0 -k RTR
r -t 1.003757531 -s 24 -d -1 -p AODV -e 48 -c 2 -a 0 -i 0 -k RTR
+ -t 1.004185284 -s 4 -d -1 -p AODV -e 48 -c 2 -a 0 -i 0 -k RTR 
- -t 1.004185284 -s 4 -d -1 -p AODV -e 48 -c 2 -a 0 -i 0 -k RTR
h -t 1.004185284 -s 4 -d -1 -p AODV -e 48 -c 2 -a 0 -i 0 -k RTR
+ -t 1.004500284 -s 4 -d -1 -p AODV -e 106 -c 2 -a 0 -i 0 -k MAC 
- -t 1.004500284 -s 4 -d -1 -p AODV -e 106 -c 2 -a 0 -i 0 -k MAC
h -t 1.004500284 -s 4 -d -1 -p AODV -e 106 -c 2 -a 0 -i 0 -k MAC
+ -t 1.004895598 -s 18 -d -1 -p AODV -e 48 -c 2 -a 0 -i 0 -k RTR 
- -t 1.004895598 -s 18 -d -1 -p AODV -e 48 -c 2 -a 0 -i 0 -k RTR
h -t 1.004895598 -s 18 -d -1 -p AODV -e 48 -c 2 -a 0 -i 0 -k RTR
r -t 1.005348706 -s 1 -d -1 -p AODV -e 48 -c 2 -a 0 -i 0 -k MAC
r -t 1.005348724 -s 3 -d -1 -p AODV -e 48 -c 2 -a 0 -i 0 -k MAC
r -t 1.005348771 -s 18 -d -1 -p AODV -e 48 -c 2 -a 0 -i 0 -k MAC
r -t 1.005348848 -s 7 -d -1 -p AODV -e 48 -c 2 -a 0 -i 0 -k MAC
r -t 1.005348915 -s 19 -d -1 -p AODV -e 48 -c 2 -a 0 -i 0 -k MAC
r -t 1.005348922 -s 15 -d -1 -p AODV -e 48 -c 2 -a 0 -i 0 -k MAC
r -t 1.005348933 -s 0 -d -1 -p AODV -e 48 -c 2 -a 0 -i 0 -k MAC
r -t 1.005349014 -s 9 -d -1 -p AODV -e 48 -c 2 -a 0 -i 0 -k MAC
r -t 1.005349019 -s 8 -d -1 -p AODV -e 48 -c 2 -a 0 -i 0 -k MAC
r -t 1.005349027 -s 5 -d -1 -p AODV -e 48 -c 2 -a 0 -i 0 -k MAC
r -t 1.005349100 -s 20 -d -1 -p AODV -e 48 -c 2 -a 0 -i 0 -k MAC
r -t 1.005349112 -s 2 -d -1 -p AODV -e 48 -c 2 -a 0 -i 0 -k MAC
r -t 1.005373706 -s 1 -d -1 -p AODV -e 48 -c 2 -a 0 -i 0 -k RTR
r -t 1.005373724 -s 3 -d -1 -p AODV -e 48 -c 2 -a 0 -i 0 -k RTR
r -t 1.005373771 -s 18 -d -1 -p AODV -e 48 -c 2 -a 0 -i 0 -k RTR
r -t 1.005373848 -s 7 -d -1 -p AODV -e 48 -c 2 -a 0 -i 0 -k RTR
+ -t 1.005373848 -s 7 -d 4 -p AODV -e 44 -c 2 -a 0 -i 0 -k RTR 
- -t 1.005373848 -s 7 -d 4 -p AODV -e 44 -c 2 -a 0 -i 0 -k RTR
h -t 1.005373848 -s 7 -d 4 -p AODV -e 44 -c 2 -a 0 -i 0 -k RTR
r -t 1.005373915 -s 19 -d -1 -p AODV -e 48 -c 2 -a 0 -i 0 -k RTR
r -t 1.005373922 -s 15 -d -1 -p AODV -e 48 -c 2 -a 0 -i 0 -k RTR
r -t 1.005373933 -s 0 -d -1 -p AODV -e 48 -c 2 -a 0 -i 0 -k RTR
r -t 1.005374014 -s 9 -d -1 -p AODV -e 48 -c 2 -a 0 -i 0 -k RTR
r -t 1.005374019 -s 8 -d -1 -p AODV -e 48 -c 2 -a 0 -i 0 -k RTR
r -t 1.005374027 -s 5 -d -1 -p AODV -e 48 -c 2 -a 0 -i 0 -k RTR
r -t 1.005374100 -s 20 -d -1 -p AODV -e 48 -c 2 -a 0 -i 0 -k RTR
r -t 1.005374112 -s 2 -d -1 -p AODV -e 48 -c 2 -a 0 -i 0 -k RTR
+ -t 1.005398703 -s 1 -d -1 -p AODV -e 48 -c 2 -a 0 -i 0 -k RTR 
- -t 1.005398703 -s 1 -d -1 -p AODV -e 48 -c 2 -a 0 -i 0 -k RTR
h -t 1.005398703 -s 1 -d -1 -p AODV -e 48 -c 2 -a 0 -i 0 -k RTR
+ -t 1.005558771 -s 18 -d -1 -p AODV -e 106 -c 2 -a 0 -i 0 -k MAC 
- -t 1.005558771 -s 18 -d -1 -p AODV -e 106 -c 2 -a 0 -i 0 -k MAC
h -t 1.005558771 -s 18 -d -1 -p AODV -e 106 -c 2 -a 0 -i 0 -k MAC
+ -t 1.005749844 -s 9 -d -1 -p AODV -e 48 -c 2 -a 0 -i 0 -k RTR 
- -t 1.005749844 -s 9 -d -1 -p AODV -e 48 -c 2 -a 0 -i 0 -k RTR
h -t 1.005749844 -s 9 -d -1 -p AODV -e 48 -c 2 -a 0 -i 0 -k RTR
+ -t 1.005820250 -s 20 -d -1 -p AODV -e 48 -c 2 -a 0 -i 0 -k RTR 
- -t 1.005820250 -s 20 -d -1 -p AODV -e 48 -c 2 -a 0 -i 0 -k RTR
h -t 1.005820250 -s 20 -d -1 -p AODV -e 48 -c 2 -a 0 -i 0 -k RTR
+ -t 1.006315112 -s 3 -d -1 -p AODV -e 48 -c 2 -a 0 -i 0 -k RTR 
- -t 1.006315112 -s 3 -d -1 -p AODV -e 48 -c 2 -a 0 -i 0 -k RTR
h -t 1.006315112 -s 3 -d -1 -p AODV -e 48 -c 2 -a 0 -i 0 -k RTR
r -t 1.006407012 -s 7 -d -1 -p AODV -e 48 -c 2 -a 0 -i 0 -k MAC
r -t 1.006407199 -s 10 -d -1 -p AODV -e 48 -c 2 -a 0 -i 0 -k MAC
r -t 1.006407235 -s 9 -d -1 -p AODV -e 48 -c 2 -a 0 -i 0 -k MAC
r -t 1.006407258 -s 4 -d -1 -p AODV -e 48 -c 2 -a 0 -i 0 -k MAC
r -t 1.006407266 -s 6 -d -1 -p AODV -e 48 -c 2 -a 0 -i 0 -k MAC
r -t 1.006407332 -s 13 -d -1 -p AODV -e 48 -c 2 -a 0 -i 0 -k MAC
r -t 1.006407337 -s 8 -d -1 -p AODV -e 48 -c 2 -a 0 -i 0 -k MAC
r -t 1.006407344 -s 12 -d -1 -p AODV -e 48 -c 2 -a 0 -i 0 -k MAC
r -t 1.006407516 -s 3 -d -1 -p AODV -e 48 -c 2 -a 0 -i 0 -k MAC
r -t 1.006407528 -s 5 -d -1 -p AODV -e 48 -c 2 -a 0 -i 0 -k MAC
r -t 1.006407533 -s 11 -d -1 -p AODV -e 48 -c 2 -a 0 -i 0 -k MAC
r -t 1.006407586 -s 15 -d -1 -p AODV -e 48 -c 2 -a 0 -i 0 -k MAC
r -t 1.006432012 -s 7 -d -1 -p AODV -e 48 -c 2 -a 0 -i 0 -k RTR
r -t 1.006432199 -s 10 -d -1 -p AODV -e 48 -c 2 -a 0 -i 0 -k RTR
r -t 1.006432235 -s 9 -d -1 -p AODV -e 48 -c 2 -a 0 -i 0 -k RTR
r -t 1.006432258 -s 4 -d -1 -p AODV -e 48 -c 2 -a 0 -i 0 -k RTR
r -t 1.006432266 -s 6 -d -1 -p AODV -e 48 -c 2 -a 0 -i 0 -k RTR
r -t 1.006432332 -s 13 -d -1 -p AODV -e 48 -c 2 -a 0 -i 0 -k RTR
+ -t 1.006432332 -s 13 -d 18 -p AODV -e 44 -c 2 -a 0 -i 0 -k RTR 
- -t 1.006432332 -s 13 -d 18 -p AODV -e 44 -c 2 -a 0 -i 0 -k RTR
h -t 1.006432332 -s 13 -d 18 -p AODV -e 44 -c 2 -a 0 -i 0 -k RTR
r -t 1.006432337 -s 8 -d -1 -p AODV -e 48 -c 2 -a 0 -i 0 -k RTR
r -t 1.006432344 -s 12 -d -1 -p AODV -e 48 -c 2 -a 0 -i 0 -k RTR
r -t 1.006432516 -s 3 -d -1 -p AODV -e 48 -c 2 -a 0 -i 0 -k RTR
r -t 1.006432528 -s 5 -d -1 -p AODV -e 48 -c 2 -a 0 -i 0 -k RTR
r -t 1.006432533 -s 11 -d -1 -p AODV -e 48 -c 2 -a 0 -i 0 -k RTR
r -t 1.006432586 -s 15 -d -1 -p AODV -e 48 -c 2 -a 0 -i 0 -k RTR
+ -t 1.006577012 -s 7 -d -1 -p ARP -e 86 -c 2 -a 0 -i 0 -k MAC 
- -t 1.006577012 -s 7 -d -1 -p ARP -e 86 -c 2 -a 0 -i 0 -k MAC
h -t 1.006577012 -s 7 -d -1 -p ARP -e 86 -c 2 -a 0 -i 0 -k MAC
r -t 1.007265253 -s 18 -d -1 -p ARP -e 28 -c 2 -a 0 -i 0 -k MAC
r -t 1.007265295 -s 10 -d -1 -p ARP -e 28 -c 2 -a 0 -i 0 -k MAC
r -t 1.007265340 -s 8 -d -1 -p ARP -e 28 -c 2 -a 0 -i 0 -k MAC
r -t 1.007265530 -s 6 -d -1 -p ARP -e 28 -c 2 -a 0 -i 0 -k MAC
r -t 1.007265542 -s 13 -d -1 -p ARP -e 28 -c 2 -a 0 -i 0 -k MAC
r -t 1.007265556 -s 11 -d -1 -p ARP -e 28 -c 2 -a 0 -i 0 -k MAC
r -t 1.007265562 -s 5 -d -1 -p ARP -e 28 -c 2 -a 0 -i 0 -k MAC
r -t 1.007265576 -s 4 -d -1 -p ARP -e 28 -c 2 -a 0 -i 0 -k MAC
r -t 1.007265676 -s 3 -d -1 -p ARP -e 28 -c 2 -a 0 -i 0 -k MAC
r -t 1.007265705 -s 14 -d -1 -p ARP -e 28 -c 2 -a 0 -i 0 -k MAC
r -t 1.007265711 -s 9 -d -1 -p ARP -e 28 -c 2 -a 0 -i 0 -k MAC
r -t 1.007265771 -s 12 -d -1 -p ARP -e 28 -c 2 -a 0 -i 0 -k MAC
r -t 1.007265812 -s 16 -d -1 -p ARP -e 28 -c 2 -a 0 -i 0 -k MAC
r -t 1.007265824 -s 2 -d -1 -p ARP -e 28 -c 2 -a 0 -i 0 -k MAC
+ -t 1.007375542 -s 13 -d -1 -p ARP -e 86 -c 2 -a 0 -i 0 -k MAC 
- -t 1.007375542 -s 13 -d -1 -p ARP -e 86 -c 2 -a 0 -i 0 -k MAC
h -t 1.007375542 -s 13 -d -1 -p ARP -e 86 -c 2 -a 0 -i 0 -k MAC
+ -t 1.007375711 -s 9 -d -1 -p AODV -e 106 -c 2 -a 0 -i 0 -k MAC 
- -t 1.007375711 -s 9 -d -1 -p AODV -e 106 -c 2 -a 0 -i 0 -k MAC
h -t 1.007375711 -s 9 -d -1 -p AODV -e 106 -c 2 -a 0 -i 0 -k MAC
d -t 1.007376175 -s 18 -d -1 -p ARP -e 86 -c 2 -a 0 -i 0 -k MAC
d -t 1.007376410 -s 7 -d -1 -p ARP -e 86 -c 2 -a 0 -i 0 -k MAC
d -t 1.007376738 -s 8 -d -1 -p ARP -e 86 -c 2 -a 0 -i 0 -k MAC
+ -t 1.007954907 -s 5 -d -1 -p AODV -e 48 -c 2 -a 0 -i 0 -k RTR 
- -t 1.007954907 -s 5 -d -1 -p AODV -e 48 -c 2 -a 0 -i 0 -k RTR
h -t 1.007954907 -s 5 -d -1 -p AODV -e 48 -c 2 -a 0 -i 0 -k RTR
r -t 1.008063666 -s 6 -d -1 -p ARP -e 28 -c 2 -a 0 -i 0 -k MAC
r -t 1.008063839 -s 10 -d -1 -p ARP -e 28 -c 2 -a 0 -i 0 -k MAC
r -t 1.008063994 -s 14 -d -1 -p ARP -e 28 -c 2 -a 0 -i 0 -k MAC
r -t 1.008064118 -s 11 -d -1 -p ARP -e 28 -c 2 -a 0 -i 0 -k MAC
r -t 1.008224009 -s 12 -d -1 -p AODV -e 48 -c 2 -a 0 -i 0 -k MAC
d -t 1.008224175 -s 18 -d -1 -p AODV -e 106 -c 2 -a 0 -i 0 -k MAC
r -t 1.008224328 -s 24 -d -1 -p AODV -e 48 -c 2 -a 0 -i 0 -k MAC
r -t 1.008224329 -s 15 -d -1 -p AODV -e 48 -c 2 -a 0 -i 0 -k MAC
d -t 1.008224410 -s 7 -d -1 -p AODV -e 106 -c 2 -a 0 -i 0 -k MAC
d -t 1.008224441 -s 4 -d -1 -p AODV -e 106 -c 2 -a 0 -i 0 -k MAC
r -t 1.008224491 -s 22 -d -1 -p AODV -e 48 -c 2 -a 0 -i 0 -k MAC
r -t 1.008224498 -s 23 -d -1 -p AODV -e 48 -c 2 -a 0 -i 0 -k MAC
r -t 1.008249009 -s 12 -d -1 -p AODV -e 48 -c 2 -a 0 -i 0 -k RTR
r -t 1.008249328 -s 24 -d -1 -p AODV -e 48 -c 2 -a 0 -i 0 -k RTR
r -t 1.008249329 -s 15 -d -1 -p AODV -e 48 -c 2 -a 0 -i 0 -k RTR
r -t 1.008249491 -s 22 -d -1 -p AODV -e 48 -c 2 -a 0 -i 0 -k RTR
r -t 1.008249498 -s 23 -d -1 -p AODV -e 48 -c 2 -a 0 -i 0 -k RTR
+ -t 1.008778441 -s 4 -d -1 -p RTS -e 44 -c 2 -a 0 -i 0 -k MAC 
- -t 1.008778441 -s 4 -d -1 -p RTS -e 44 -c 2 -a 0 -i 0 -k MAC
h -t 1.008778441 -s 4 -d -1 -p RTS -e 44 -c 2 -a 0 -i 0 -k MAC
+ -t 1.008844455 -s 10 -d -1 -p AODV -e 48 -c 2 -a 0 -i 0 -k RTR 
- -t 1.008844455 -s 10 -d -1 -p AODV -e 48 -c 2 -a 0 -i 0 -k RTR
h -t 1.008844455 -s 10 -d -1 -p AODV -e 48 -c 2 -a 0 -i 0 -k RTR
+ -t 1.008861429 -s 8 -d -1 -p AODV -e 48 -c 2 -a 0 -i 0 -k RTR 
- -t 1.008861429 -s 8 -d -1 -p AODV -e 48 -c 2 -a 0 -i 0 -k RTR
h -t 1.008861429 -s 8 -d -1 -p AODV -e 48 -c 2 -a 0 -i 0 -k RTR
+ -t 1.009047549 -s 24 -d -1 -p AODV -e 48 -c 2 -a 0 -i 0 -k RTR 
- -t 1.009047549 -s 24 -d -1 -p AODV -e 48 -c 2 -a 0 -i 0 -k RTR
h -t 1.009047549 -s 24 -d -1 -p AODV -e 48 -c 2 -a 0 -i 0 -k RTR
r -t 1.009131005 -s 7 -d -1 -p RTS -e 44 -c 2 -a 0 -i 0 -k MAC
+ -t 1.009141005 -s 7 -d -1 -p CTS -e 38 -c 2 -a 0 -i 0 -k MAC 
- -t 1.009141005 -s 7 -d -1 -p CTS -e 38 -c 2 -a 0 -i 0 -k MAC
h -t 1.009141005 -s 7 -d -1 -p CTS -e 38 -c 2 -a 0 -i 0 -k MAC
+ -t 1.009400083 -s 23 -d -1 -p AODV -e 48 -c 2 -a 0 -i 0 -k RTR 
- -t 1.009400083 -s 23 -d -1 -p AODV -e 48 -c 2 -a 0 -i 0 -k RTR
h -t 1.009400083 -s 23 -d -1 -p AODV -e 48 -c 2 -a 0 -i 0 -k RTR
r -t 1.009445569 -s 4 -d -1 -p CTS -e 38 -c 2 -a 0 -i 0 -k MAC
+ -t 1.009455569 -s 4 -d -1 -p ARP -e 86 -c 2 -a 0 -i 0 -k MAC 
- -t 1.009455569 -s 4 -d -1 -p ARP -e 86 -c 2 -a 0 -i 0 -k MAC
h -t 1.009455569 -s 4 -d -1 -p ARP -e 86 -c 2 -a 0 -i 0 -k MAC
+ -t 1.009460968 -s 2 -d -1 -p AODV -e 48 -c 2 -a 0 -i 0 -k RTR 
- -t 1.009460968 -s 2 -d -1 -p AODV -e 48 -c 2 -a 0 -i 0 -k RTR
h -t 1.009460968 -s 2 -d -1 -p AODV -e 48 -c 2 -a 0 -i 0 -k RTR
r -t 1.010144133 -s 7 -d -1 -p ARP -e 28 -c 2 -a 0 -i 0 -k MAC
+ -t 1.010154133 -s 7 -d -1 -p ACK -e 38 -c 2 -a 0 -i 0 -k MAC 
- -t 1.010154133 -s 7 -d -1 -p ACK -e 38 -c 2 -a 0 -i 0 -k MAC
h -t 1.010154133 -s 7 -d -1 -p ACK -e 38 -c 2 -a 0 -i 0 -k MAC
+ -t 1.010158122 -s 19 -d -1 -p AODV -e 48 -c 2 -a 0 -i 0 -k RTR 
- -t 1.010158122 -s 19 -d -1 -p AODV -e 48 -c 2 -a 0 -i 0 -k RTR
h -t 1.010158122 -s 19 -d -1 -p AODV -e 48 -c 2 -a 0 -i 0 -k RTR
r -t 1.010458697 -s 4 -d -1 -p ACK -e 38 -c 2 -a 0 -i 0 -k MAC
+ -t 1.010568945 -s 2 -d -1 -p AODV -e 106 -c 2 -a 0 -i 0 -k MAC 
- -t 1.010568945 -s 2 -d -1 -p AODV -e 106 -c 2 -a 0 -i 0 -k MAC
h -t 1.010568945 -s 2 -d -1 -p AODV -e 106 -c 2 -a 0 -i 0 -k MAC
+ -t 1.011073447 -s 24 -d -1 -p AODV -e 106 -c 2 -a 0 -i 0 -k MAC 
- -t 1.011073447 -s 24 -d -1 -p AODV -e 106 -c 2 -a 0 -i 0 -k MAC
h -t 1.011073447 -s 24 -d -1 -p AODV -e 106 -c 2 -a 0 -i 0 -k MAC
d -t 1.011074715 -s 4 -d -1 -p AODV -e 106 -c 2 -a 0 -i 0 -k MAC
d -t 1.011074761 -s 7 -d -1 -p AODV -e 106 -c 2 -a 0 -i 0 -k MAC
r -t 1.011417244 -s 5 -d -1 -p AODV -e 48 -c 2 -a 0 -i 0 -k MAC
r -t 1.011417358 -s 3 -d -1 -p AODV -e 48 -c 2 -a 0 -i 0 -k MAC
r -t 1.011417387 -s 17 -d -1 -p AODV -e 48 -c 2 -a 0 -i 0 -k MAC
r -t 1.011417445 -s 0 -d -1 -p AODV -e 48 -c 2 -a 0 -i 0 -k MAC
r -t 1.011417527 -s 8 -d -1 -p AODV -e 48 -c 2 -a 0 -i 0 -k MAC
r -t 1.011417572 -s 16 -d -1 -p AODV -e 48 -c 2 -a 0 -i 0 -k MAC
r -t 1.011442244 -s 5 -d -1 -p AODV -e 48 -c 2 -a 0 -i 0 -k RTR
r -t 1.011442358 -s 3 -d -1 -p AODV -e 48 -c 2 -a 0 -i 0 -k RTR
r -t 1.011442387 -s 17 -d -1 -p AODV -e 48 -c 2 -a 0 -i 0 -k RTR
+ -t 1.011442387 -s 17 -d 2 -p AODV -e 44 -c 2 -a 0 -i 0 -k RTR 
- -t 1.011442387 -s 17 -d 2 -p AODV -e 44 -c 2 -a 0 -i 0 -k RTR
h -t 1.011442387 -s 17 -d 2 -p AODV -e 44 -c 2 -a 0 -i 0 -k RTR
r -t 1.011442445 -s 0 -d -1 -p AODV -e 48 -c 2 -a 0 -i 0 -k RTR
r -t 1.011442527 -s 8 -d -1 -p AODV -e 48 -c 2 -a 0 -i 0 -k RTR
r -t 1.011442572 -s 16 -d -1 -p AODV -e 48 -c 2 -a 0 -i 0 -k RTR
+ -t 1.011777387 -s 17 -d -1 -p ARP -e 86 -c 2 -a 0 -i 0 -k MAC 
- -t 1.011777387 -s 17 -d -1 -p ARP -e 86 -c 2 -a 0 -i 0 -k MAC
h -t 1.011777387 -s 17 -d -1 -p ARP -e 86 -c 2 -a 0 -i 0 -k MAC
r -t 1.011921823 -s 23 -d -1 -p AODV -e 48 -c 2 -a 0 -i 0 -k MAC
d -t 1.011922065 -s 9 -d -1 -p AODV -e 106 -c 2 -a 0 -i 0 -k MAC
r -t 1.011922072 -s 22 -d -1 -p AODV -e 48 -c 2 -a 0 -i 0 -k MAC
d -t 1.011922101 -s 12 -d -1 -p AODV -e 106 -c 2 -a 0 -i 0 -k MAC
d -t 1.011922278 -s 15 -d -1 -p AODV -e 106 -c 2 -a 0 -i 0 -k MAC
r -t 1.011946823 -s 23 -d -1 -p AODV -e 48 -c 2 -a 0 -i 0 -k RTR
r -t 1.011947072 -s 22 -d -1 -p AODV -e 48 -c 2 -a 0 -i 0 -k RTR
+ -t 1.012351823 -s 23 -d -1 -p AODV -e 106 -c 2 -a 0 -i 0 -k MAC 
- -t 1.012351823 -s 23 -d -1 -p AODV -e 106 -c 2 -a 0 -i 0 -k MAC
h -t 1.012351823 -s 23 -d -1 -p AODV -e 106 -c 2 -a 0 -i 0 -k MAC
r -t 1.012465684 -s 16 -d -1 -p ARP -e 28 -c 2 -a 0 -i 0 -k MAC
r -t 1.012465819 -s 5 -d -1 -p ARP -e 28 -c 2 -a 0 -i 0 -k MAC
r -t 1.012465828 -s 2 -d -1 -p ARP -e 28 -c 2 -a 0 -i 0 -k MAC
r -t 1.012465999 -s 8 -d -1 -p ARP -e 28 -c 2 -a 0 -i 0 -k MAC
r -t 1.012466121 -s 11 -d -1 -p ARP -e 28 -c 2 -a 0 -i 0 -k MAC
r -t 1.012466203 -s 3 -d -1 -p ARP -e 28 -c 2 -a 0 -i 0 -k MAC
+ -t 1.012595819 -s 5 -d -1 -p AODV -e 106 -c 2 -a 0 -i 0 -k MAC 
- -t 1.012595819 -s 5 -d -1 -p AODV -e 106 -c 2 -a 0 -i 0 -k MAC
h -t 1.012595819 -s 5 -d -1 -p AODV -e 106 -c 2 -a 0 -i 0 -k MAC
d -t 1.012597035 -s 9 -d -1 -p AODV -e 106 -c 2 -a 0 -i 0 -k MAC
r -t 1.013200144 -s 22 -d -1 -p AODV -e 48 -c 2 -a 0 -i 0 -k MAC
r -t 1.013200199 -s 24 -d -1 -p AODV -e 48 -c 2 -a 0 -i 0 -k MAC
r -t 1.013200351 -s 21 -d -1 -p AODV -e 48 -c 2 -a 0 -i 0 -k MAC
r -t 1.013200507 -s 15 -d -1 -p AODV -e 48 -c 2 -a 0 -i 0 -k MAC
+ -t 1.013205834 -s 12 -d -1 -p AODV -e 48 -c 2 -a 0 -i 0 -k RTR 
- -t 1.013205834 -s 12 -d -1 -p AODV -e 48 -c 2 -a 0 -i 0 -k RTR
h -t 1.013205834 -s 12 -d -1 -p AODV -e 48 -c 2 -a 0 -i 0 -k RTR
r -t 1.013225144 -s 22 -d -1 -p AODV -e 48 -c 2 -a 0 -i 0 -k RTR
r -t 1.013225199 -s 24 -d -1 -p AODV -e 48 -c 2 -a 0 -i 0 -k RTR
r -t 1.013225351 -s 21 -d -1 -p AODV -e 48 -c 2 -a 0 -i 0 -k RTR
r -t 1.013225507 -s 15 -d -1 -p AODV -e 48 -c 2 -a 0 -i 0 -k RTR
r -t 1.013444104 -s 8 -d -1 -p AODV -e 48 -c 2 -a 0 -i 0 -k MAC
r -t 1.013444118 -s 2 -d -1 -p AODV -e 48 -c 2 -a 0 -i 0 -k MAC
+ -t 1.013444218 -s 0 -d -1 -p AODV -e 48 -c 2 -a 0 -i 0 -k RTR 
- -t 1.013444218 -s 0 -d -1 -p AODV -e 48 -c 2 -a 0 -i 0 -k RTR
h -t 1.013444218 -s 0 -d -1 -p AODV -e 48 -c 2 -a 0 -i 0 -k RTR
r -t 1.013444252 -s 17 -d -1 -p AODV -e 48 -c 2 -a 0 -i 0 -k MAC
r -t 1.013444273 -s 3 -d -1 -p AODV -e 48 -c 2 -a 0 -i 0 -k MAC
r -t 1.013444276 -s 16 -d -1 -p AODV -e 48 -c 2 -a 0 -i 0 -k MAC
d -t 1.013444369 -s 7 -d -1 -p AODV -e 106 -c 2 -a 0 -i 0 -k MAC
r -t 1.013444427 -s 11 -d -1 -p AODV -e 48 -c 2 -a 0 -i 0 -k MAC
r -t 1.013444501 -s 0 -d -1 -p AODV -e 48 -c 2 -a 0 -i 0 -k MAC
d -t 1.013444510 -s 10 -d -1 -p AODV -e 106 -c 2 -a 0 -i 0 -k MAC
d -t 1.013444563 -s 4 -d -1 -p AODV -e 106 -c 2 -a 0 -i 0 -k MAC
d -t 1.013444576 -s 18 -d -1 -p AODV -e 106 -c 2 -a 0 -i 0 -k MAC
r -t 1.013469104 -s 8 -d -1 -p AODV -e 48 -c 2 -a 0 -i 0 -k RTR
r -t 1.013469118 -s 2 -d -1 -p AODV -e 48 -c 2 -a 0 -i 0 -k RTR
r -t 1.013469252 -s 17 -d -1 -p AODV -e 48 -c 2 -a 0 -i 0 -k RTR
r -t 1.013469273 -s 3 -d -1 -p AODV -e 48 -c 2 -a 0 -i 0 -k RTR
r -t 1.013469276 -s 16 -d -1 -p AODV -e 48 -c 2 -a 0 -i 0 -k RTR
r -t 1.013469427 -s 11 -d -1 -p AODV -e 48 -c 2 -a 0 -i 0 -k RTR
r -t 1.013469501 -s 0 -d -1 -p AODV -e 48 -c 2 -a 0 -i 0 -k RTR
+ -t 1.013599218 -s 0 -d -1 -p AODV -e 106 -c 2 -a 0 -i 0 -k MAC 
- -t 1.013599218 -s 0 -d -1 -p AODV -e 106 -c 2 -a 0 -i 0 -k MAC
h -t 1.013599218 -s 0 -d -1 -p AODV -e 106 -c 2 -a 0 -i 0 -k MAC
+ -t 1.014054852 -s 11 -d -1 -p AODV -e 48 -c 2 -a 0 -i 0 -k RTR 
- -t 1.014054852 -s 11 -d -1 -p AODV -e 48 -c 2 -a 0 -i 0 -k RTR
h -t 1.014054852 -s 11 -d -1 -p AODV -e 48 -c 2 -a 0 -i 0 -k RTR
r -t 1.014447522 -s 3 -d -1 -p AODV -e 48 -c 2 -a 0 -i 0 -k MAC
r -t 1.014447718 -s 2 -d -1 -p AODV -e 48 -c 2 -a 0 -i 0 -k MAC
r -t 1.014447867 -s 4 -d -1 -p AODV -e 48 -c 2 -a 0 -i 0 -k MAC
r -t 1.014447900 -s 5 -d -1 -p AODV -e 48 -c 2 -a 0 -i 0 -k MAC
r -t 1.014447912 -s 19 -d -1 -p AODV -e 48 -c 2 -a 0 -i 0 -k MAC
r -t 1.014447923 -s 1 -d -1 -p AODV -e 48 -c 2 -a 0 -i 0 -k MAC
r -t 1.014472522 -s 3 -d -1 -p AODV -e 48 -c 2 -a 0 -i 0 -k RTR
r -t 1.014472718 -s 2 -d -1 -p AODV -e 48 -c 2 -a 0 -i 0 -k RTR
r -t 1.014472867 -s 4 -d -1 -p AODV -e 48 -c 2 -a 0 -i 0 -k RTR
r -t 1.014472900 -s 5 -d -1 -p AODV -e 48 -c 2 -a 0 -i 0 -k RTR
r -t 1.014472912 -s 19 -d -1 -p AODV -e 48 -c 2 -a 0 -i 0 -k RTR
r -t 1.014472923 -s 1 -d -1 -p AODV -e 48 -c 2 -a 0 -i 0 -k RTR
+ -t 1.014517522 -s 3 -d -1 -p AODV -e 106 -c 2 -a 0 -i 0 -k MAC 
- -t 1.014517522 -s 3 -d -1 -p AODV -e 106 -c 2 -a 0 -i 0 -k MAC
h -t 1.014517522 -s 3 -d -1 -p AODV -e 106 -c 2 -a 0 -i 0 -k MAC
+ -t 1.014943332 -s 6 -d -1 -p AODV -e 48 -c 2 -a 0 -i 0 -k RTR 
- -t 1.014943332 -s 6 -d -1 -p AODV -e 48 -c 2 -a 0 -i 0 -k RTR
h -t 1.014943332 -s 6 -d -1 -p AODV -e 48 -c 2 -a 0 -i 0 -k RTR
r -t 1.015365826 -s 0 -d -1 -p AODV -e 48 -c 2 -a 0 -i 0 -k MAC
r -t 1.015365934 -s 2 -d -1 -p AODV -e 48 -c 2 -a 0 -i 0 -k MAC
r -t 1.015365962 -s 4 -d -1 -p AODV -e 48 -c 2 -a 0 -i 0 -k MAC
r -t 1.015365976 -s 5 -d -1 -p AODV -e 48 -c 2 -a 0 -i 0 -k MAC
r -t 1.015366136 -s 8 -d -1 -p AODV -e 48 -c 2 -a 0 -i 0 -k MAC
r -t 1.015366186 -s 7 -d -1 -p AODV -e 48 -c 2 -a 0 -i 0 -k MAC
r -t 1.015366197 -s 1 -d -1 -p AODV -e 48 -c 2 -a 0 -i 0 -k MAC
r -t 1.015366267 -s 18 -d -1 -p AODV -e 48 -c 2 -a 0 -i 0 -k MAC
r -t 1.015366288 -s 19 -d -1 -p AODV -e 48 -c 2 -a 0 -i 0 -k MAC
r -t 1.015366339 -s 17 -d -1 -p AODV -e 48 -c 2 -a 0 -i 0 -k MAC
r -t 1.015390826 -s 0 -d -1 -p AODV -e 48 -c 2 -a 0 -i 0 -k RTR
r -t 1.015390934 -s 2 -d -1 -p AODV -e 48 -c 2 -a 0 -i 0 -k RTR
r -t 1.015390962 -s 4 -d -1 -p AODV -e 48 -c 2 -a 0 -i 0 -k RTR
r -t 1.015390976 -s 5 -d -1 -p AODV -e 48 -c 2 -a 0 -i 0 -k RTR
r -t 1.015391136 -s 8 -d -1 -p AODV -e 48 -c 2 -a 0 -i 0 -k RTR
r -t 1.015391186 -s 7 -d -1 -p AODV -e 48 -c 2 -a 0 -i 0 -k RTR
r -t 1.015391197 -s 1 -d -1 -p AODV -e 48 -c 2 -a 0 -i 0 -k RTR
r -t 1.015391267 -s 18 -d -1 -p AODV -e 48 -c 2 -a 0 -i 0 -k RTR
r -t 1.015391288 -s 19 -d -1 -p AODV -e 48 -c 2 -a 0 -i 0 -k RTR
r -t 1.015391339 -s 17 -d -1 -p AODV -e 48 -c 2 -a 0 -i 0 -k RTR
+ -t 1.015455934 -s 2 -d -1 -p RTS -e 44 -c 2 -a 0 -i 0 -k MAC 
- -t 1.015455934 -s 2 -d -1 -p RTS -e 44 -c 2 -a 0 -i 0 -k MAC
h -t 1.015455934 -s 2 -d -1 -p RTS -e 44 -c 2 -a 0 -i 0 -k MAC
r -t 1.015808376 -s 17 -d -1 -p RTS -e 44 -c 2 -a 0 -i 0 -k MAC
+ -t 1.015818376 -s 17 -d -1 -p CTS -e 38 -c 2 -a 0 -i 0 -k MAC 
- -t 1.015818376 -s 17 -d -1 -p CTS -e 38 -c 2 -a 0 -i 0 -k MAC
h -t 1.015818376 -s 17 -d -1 -p CTS -e 38 -c 2 -a 0 -i 0 -k MAC
r -t 1.016122817 -s 2 -d -1 -p CTS -e 38 -c 2 -a 0 -i 0 -k MAC
+ -t 1.016132817 -s 2 -d -1 -p ARP -e 86 -c 2 -a 0 -i 0 -k MAC 
- -t 1.016132817 -s 2 -d -1 -p ARP -e 86 -c 2 -a 0 -i 0 -k MAC
h -t 1.016132817 -s 2 -d -1 -p ARP -e 86 -c 2 -a 0 -i 0 -k MAC
r -t 1.016821259 -s 17 -d -1 -p ARP -e 28 -c 2 -a 0 -i 0 -k MAC
+ -t 1.016831259 -s 17 -d -1 -p ACK -e 38 -c 2 -a 0 -i 0 -k MAC 
- -t 1.016831259 -s 17 -d -1 -p ACK -e 38 -c 2 -a 0 -i 0 -k MAC
h -t 1.016831259 -s 17 -d -1 -p ACK -e 38 -c 2 -a 0 -i 0 -k MAC
r -t 1.017135700 -s 2 -d -1 -p ACK -e 38 -c 2 -a 0 -i 0 -k MAC
+ -t 1.017305871 -s 8 -d -1 -p AODV -e 106 -c 2 -a 0 -i 0 -k MAC 
- -t 1.017305871 -s 8 -d -1 -p AODV -e 106 -c 2 -a 0 -i 0 -k MAC
h -t 1.017305871 -s 8 -d -1 -p AODV -e 106 -c 2 -a 0 -i 0 -k MAC
+ -t 1.018128811 -s 16 -d -1 -p AODV -e 48 -c 2 -a 0 -i 0 -k RTR 
- -t 1.018128811 -s 16 -d -1 -p AODV -e 48 -c 2 -a 0 -i 0 -k RTR
h -t 1.018128811 -s 16 -d -1 -p AODV -e 48 -c 2 -a 0 -i 0 -k RTR
r -t 1.018154155 -s 5 -d -1 -p AODV -e 48 -c 2 -a 0 -i 0 -k MAC
r -t 1.018154199 -s 7 -d -1 -p AODV -e 48 -c 2 -a 0 -i 0 -k MAC
r -t 1.018154250 -s 11 -d -1 -p AODV -e 48 -c 2 -a 0 -i 0 -k MAC
r -t 1.018154279 -s 10 -d -1 -p AODV -e 48 -c 2 -a 0 -i 0 -k MAC
r -t 1.018154349 -s 16 -d -1 -p AODV -e 48 -c 2 -a 0 -i 0 -k MAC
r -t 1.018154437 -s 18 -d -1 -p AODV -e 48 -c 2 -a 0 -i 0 -k MAC
r -t 1.018154453 -s 2 -d -1 -p AODV -e 48 -c 2 -a 0 -i 0 -k MAC
r -t 1.018154483 -s 17 -d -1 -p AODV -e 48 -c 2 -a 0 -i 0 -k MAC
r -t 1.018154485 -s 3 -d -1 -p AODV -e 48 -c 2 -a 0 -i 0 -k MAC
r -t 1.018154514 -s 14 -d -1 -p AODV -e 48 -c 2 -a 0 -i 0 -k MAC
r -t 1.018154575 -s 13 -d -1 -p AODV -e 48 -c 2 -a 0 -i 0 -k MAC
r -t 1.018154605 -s 4 -d -1 -p AODV -e 48 -c 2 -a 0 -i 0 -k MAC
r -t 1.018154616 -s 6 -d -1 -p AODV -e 48 -c 2 -a 0 -i 0 -k MAC
r -t 1.018179155 -s 5 -d -1 -p AODV -e 48 -c 2 -a 0 -i 0 -k RTR
r -t 1.018179199 -s 7 -d -1 -p AODV -e 48 -c 2 -a 0 -i 0 -k RTR
r -t 1.018179250 -s 11 -d -1 -p AODV -e 48 -c 2 -a 0 -i 0 -k RTR
r -t 1.018179279 -s 10 -d -1 -p AODV -e 48 -c 2 -a 0 -i 0 -k RTR
r -t 1.018179349 -s 16 -d -1 -p AODV -e 48 -c 2 -a 0 -i 0 -k RTR
r -t 1.018179437 -s 18 -d -1 -p AODV -e 48 -c 2 -a 0 -i 0 -k RTR
r -t 1.018179453 -s 2 -d -1 -p AODV -e 48 -c 2 -a 0 -i 0 -k RTR
r -t 1.018179483 -s 17 -d -1 -p AODV -e 48 -c 2 -a 0 -i 0 -k RTR
r -t 1.018179485 -s 3 -d -1 -p AODV -e 48 -c 2 -a 0 -i 0 -k RTR
r -t 1.018179514 -s 14 -d -1 -p AODV -e 48 -c 2 -a 0 -i 0 -k RTR
r -t 1.018179575 -s 13 -d -1 -p AODV -e 48 -c 2 -a 0 -i 0 -k RTR
r -t 1.018179605 -s 4 -d -1 -p AODV -e 48 -c 2 -a 0 -i 0 -k RTR
r -t 1.018179616 -s 6 -d -1 -p AODV -e 48 -c 2 -a 0 -i 0 -k RTR
+ -t 1.018364483 -s 17 -d -1 -p RTS -e 44 -c 2 -a 0 -i 0 -k MAC 
- -t 1.018364483 -s 17 -d -1 -p RTS -e 44 -c 2 -a 0 -i 0 -k MAC
h -t 1.018364483 -s 17 -d -1 -p RTS -e 44 -c 2 -a 0 -i 0 -k MAC
r -t 1.018716924 -s 2 -d -1 -p RTS -e 44 -c 2 -a 0 -i 0 -k MAC
+ -t 1.018726924 -s 2 -d -1 -p CTS -e 38 -c 2 -a 0 -i 0 -k MAC 
- -t 1.018726924 -s 2 -d -1 -p CTS -e 38 -c 2 -a 0 -i 0 -k MAC
h -t 1.018726924 -s 2 -d -1 -p CTS -e 38 -c 2 -a 0 -i 0 -k MAC
r -t 1.019031365 -s 17 -d -1 -p CTS -e 38 -c 2 -a 0 -i 0 -k MAC
+ -t 1.019041365 -s 17 -d 2 -p AODV -e 102 -c 2 -a 0 -i 0 -k MAC 
- -t 1.019041365 -s 17 -d 2 -p AODV -e 102 -c 2 -a 0 -i 0 -k MAC
h -t 1.019041365 -s 17 -d 2 -p AODV -e 102 -c 2 -a 0 -i 0 -k MAC
+ -t 1.019686472 -s 20 -d -1 -p AODV -e 106 -c 2 -a 0 -i 0 -k MAC 
- -t 1.019686472 -s 20 -d -1 -p AODV -e 106 -c 2 -a 0 -i 0 -k MAC
h -t 1.019686472 -s 20 -d -1 -p AODV -e 106 -c 2 -a 0 -i 0 -k MAC
r -t 1.019857807 -s 2 -d 2 -p AODV -e 44 -c 2 -a 0 -i 0 -k MAC
+ -t 1.019867807 -s 2 -d -1 -p ACK -e 38 -c 2 -a 0 -i 0 -k MAC 
- -t 1.019867807 -s 2 -d -1 -p ACK -e 38 -c 2 -a 0 -i 0 -k MAC
h -t 1.019867807 -s 2 -d -1 -p ACK -e 38 -c 2 -a 0 -i 0 -k MAC
+ -t 1.019882807 -s 2 -d 4 -p AODV -e 44 -c 2 -a 0 -i 0 -k RTR 
- -t 1.019882807 -s 2 -d 4 -p AODV -e 44 -c 2 -a 0 -i 0 -k RTR
h -t 1.019882807 -s 2 -d 4 -p AODV -e 44 -c 2 -a 0 -i 0 -k RTR
r -t 1.020172248 -s 17 -d -1 -p ACK -e 38 -c 2 -a 0 -i 0 -k MAC
d -t 1.020534931 -s 15 -d -1 -p AODV -e 106 -c 2 -a 0 -i 0 -k MAC
d -t 1.020534938 -s 1 -d -1 -p AODV -e 106 -c 2 -a 0 -i 0 -k MAC
d -t 1.020534974 -s 19 -d -1 -p AODV -e 106 -c 2 -a 0 -i 0 -k MAC
r -t 1.020534988 -s 21 -d -1 -p AODV -e 48 -c 2 -a 0 -i 0 -k MAC
r -t 1.020535147 -s 22 -d -1 -p AODV -e 48 -c 2 -a 0 -i 0 -k MAC
d -t 1.020535289 -s 4 -d -1 -p AODV -e 106 -c 2 -a 0 -i 0 -k MAC
+ -t 1.020542433 -s 16 -d -1 -p AODV -e 106 -c 2 -a 0 -i 0 -k MAC 
- -t 1.020542433 -s 16 -d -1 -p AODV -e 106 -c 2 -a 0 -i 0 -k MAC
h -t 1.020542433 -s 16 -d -1 -p AODV -e 106 -c 2 -a 0 -i 0 -k MAC
r -t 1.020559988 -s 21 -d -1 -p AODV -e 48 -c 2 -a 0 -i 0 -k RTR
r -t 1.020560147 -s 22 -d -1 -p AODV -e 48 -c 2 -a 0 -i 0 -k RTR
r -t 1.021390730 -s 17 -d -1 -p AODV -e 48 -c 2 -a 0 -i 0 -k MAC
r -t 1.021390890 -s 5 -d -1 -p AODV -e 48 -c 2 -a 0 -i 0 -k MAC
r -t 1.021390897 -s 11 -d -1 -p AODV -e 48 -c 2 -a 0 -i 0 -k MAC
r -t 1.021390912 -s 8 -d -1 -p AODV -e 48 -c 2 -a 0 -i 0 -k MAC
r -t 1.021391060 -s 2 -d -1 -p AODV -e 48 -c 2 -a 0 -i 0 -k MAC
r -t 1.021391165 -s 14 -d -1 -p AODV -e 48 -c 2 -a 0 -i 0 -k MAC
r -t 1.021391206 -s 10 -d -1 -p AODV -e 48 -c 2 -a 0 -i 0 -k MAC
r -t 1.021391233 -s 7 -d -1 -p AODV -e 48 -c 2 -a 0 -i 0 -k MAC
r -t 1.021415730 -s 17 -d -1 -p AODV -e 48 -c 2 -a 0 -i 0 -k RTR
r -t 1.021415890 -s 5 -d -1 -p AODV -e 48 -c 2 -a 0 -i 0 -k RTR