M 0.00000 0 (663.00, 484.00, 0.00), (0.00, 0.00), 0.00
M 0.00000 21 (263.00, 306.00, 0.00), (150.00, 150.00), 40.00
M 0.00000 20 (350.00, 434.00, 0.00), (150.00, 150.00), 40.00
s 1.000000000 _21_ AGT  --- 0 cbr 1000 [0 0 0 0] ------- [21:0 17:0 32 0] [0] 0 0
r 1.000000000 _21_ RTR  --- 0 cbr 1000 [0 0 0 0] ------- [21:0 17:0 32 0] [0] 0 0
s 1.000000000 _21_ RTR  --- 0 AODV 48 [0 0 0 0] ------- [21:255 -1:255 30 0] [0x2 1 1 [17 0] [21 4]] (REQUEST)
s 1.000535000 _21_ MAC  --- 0 AODV 106 [0 ffffffff 15 800] ------- [21:255 -1:255 30 0] [0x2 1 1 [17 0] [21 4]] (REQUEST)
r 1.001383227 _22_ MAC  --- 0 AODV 48 [0 ffffffff 15 800] ------- [21:255 -1:255 30 0] [0x2 1 1 [17 0] [21 4]] (REQUEST)
r 1.001383445 _15_ MAC  --- 0 AODV 48 [0 ffffffff 15 800] ------- [21:255 -1:255 30 0] [0x2 1 1 [17 0] [21 4]] (REQUEST)
r 1.001383516 _20_ MAC  --- 0 AODV 48 [0 ffffffff 15 800] ------- [21:255 -1:255 30 0] [0x2 1 1 [17 0] [21 4]] (REQUEST)
r 1.001383529 _23_ MAC  --- 0 AODV 48 [0 ffffffff 15 800] ------- [21:255 -1:255 30 0] [0x2 1 1 [17 0] [21 4]] (REQUEST)
r 1.001408227 _22_ RTR  --- 0 AODV 48 [0 ffffffff 15 800] ------- [21:255 -1:255 30 0] [0x2 1 1 [17 0] [21 4]] (REQUEST)
r 1.001408445 _15_ RTR  --- 0 AODV 48 [0 ffffffff 15 800] ------- [21:255 -1:255 30 0] [0x2 1 1 [17 0] [21 4]] (REQUEST)
r 1.001408516 _20_ RTR  --- 0 AODV 48 [0 ffffffff 15 800] ------- [21:255 -1:255 30 0] [0x2 1 1 [17 0] [21 4]] (REQUEST)
r 1.001408529 _23_ RTR  --- 0 AODV 48 [0 ffffffff 15 800] ------- [21:255 -1:255 30 0] [0x2 1 1 [17 0] [21 4]] (REQUEST)
s 1.001550273 _22_ RTR  --- 0 AODV 48 [0 ffffffff 15 800] ------- [22:255 -1:255 29 0] [0x2 2 1 [17 0] [21 4]] (REQUEST)
s 1.001785273 _22_ MAC  --- 0 AODV 106 [0 ffffffff 16 800] ------- [22:255 -1:255 29 0] [0x2 2 1 [17 0] [21 4]] (REQUEST)
s 1.002289672 _15_ RTR  --- 0 AODV 48 [0 ffffffff 15 800] ------- [15:255 -1:255 29 0] [0x2 2 1 [17 0] [21 4]] (REQUEST)
r 1.002633500 _21_ MAC  --- 0 AODV 48 [0 ffffffff 16 800] ------- [22:255 -1:255 29 0] [0x2 2 1 [17 0] [21 4]] (REQUEST)
r 1.002633595 _23_ MAC  --- 0 AODV 48 [0 ffffffff 16 800] ------- [22:255 -1:255 29 0] [0x2 2 1 [17 0] [21 4]] (REQUEST)
r 1.002633700 _15_ MAC  --- 0 AODV 48 [0 ffffffff 16 800] ------- [22:255 -1:255 29 0] [0x2 2 1 [17 0] [21 4]] (REQUEST)
r 1.002633898 _24_ MAC  --- 0 AODV 48 [0 ffffffff 16 800] ------- [22:255 -1:255 29 0] [0x2 2 1 [17 0] [21 4]] (REQUEST)
r 1.002633951 _20_ MAC  --- 0 AODV 48 [0 ffffffff 16 800] ------- [22:255 -1:255 29 0] [0x2 2 1 [17 0] [21 4]] (REQUEST)
r 1.002634053 _9_ MAC  --- 0 AODV 48 [0 ffffffff 16 800] ------- [22:255 -1:255 29 0] [0x2 2 1 [17 0] [21 4]] (REQUEST)
r 1.002658500 _21_ RTR  --- 0 AODV 48 [0 ffffffff 16 800] ------- [22:255 -1:255 29 0] [0x2 2 1 [17 0] [21 4]] (REQUEST)
r 1.002658595 _23_ RTR  --- 0 AODV 48 [0 ffffffff 16 800] ------- [22:255 -1:255 29 0] [0x2 2 1 [17 0] [21 4]] (REQUEST)
r 1.002658700 _15_ RTR  --- 0 AODV 48 [0 ffffffff 16 800] ------- [22:255 -1:255 29 0] [0x2 2 1 [17 0] [21 4]] (REQUEST)
r 1.002658898 _24_ RTR  --- 0 AODV 48 [0 ffffffff 16 800] ------- [22:255 -1:255 29 0] [0x2 2 1 [17 0] [21 4]] (REQUEST)
r 1.002658951 _20_ RTR  --- 0 AODV 48 [0 ffffffff 16 800] ------- [22:255 -1:255 29 0] [0x2 2 1 [17 0] [21 4]] (REQUEST)
r 1.002659053 _9_ RTR  --- 0 AODV 48 [0 ffffffff 16 800] ------- [22:255 -1:255 29 0] [0x2 2 1 [17 0] [21 4]] (REQUEST)
s 1.002883700 _15_ MAC  --- 0 AODV 106 [0 ffffffff f 800] ------- [15:255 -1:255 29 0] [0x2 2 1 [17 0] [21 4]] (REQUEST)
r 1.003732127 _22_ MAC  --- 0 AODV 48 [0 ffffffff f 800] ------- [15:255 -1:255 29 0] [0x2 2 1 [17 0] [21 4]] (REQUEST)
r 1.003732145 _21_ MAC  --- 0 AODV 48 [0 ffffffff f 800] ------- [15:255 -1:255 29 0] [0x2 2 1 [17 0] [21 4]] (REQUEST)
r 1.003732161 _20_ MAC  --- 0 AODV 48 [0 ffffffff f 800] ------- [15:255 -1:255 29 0] [0x2 2 1 [17 0] [21 4]] (REQUEST)
r 1.003732249 _1_ MAC  --- 0 AODV 48 [0 ffffffff f 800] ------- [15:255 -1:255 29 0] [0x2 2 1 [17 0] [21 4]] (REQUEST)
r 1.003732318 _9_ MAC  --- 0 AODV 48 [0 ffffffff f 800] ------- [15:255 -1:255 29 0] [0x2 2 1 [17 0] [21 4]] (REQUEST)
r 1.003732338 _4_ MAC  --- 0 AODV 48 [0 ffffffff f 800] ------- [15:255 -1:255 29 0] [0x2 2 1 [17 0] [21 4]] (REQUEST)
r 1.003732384 _23_ MAC  --- 0 AODV 48 [0 ffffffff f 800] ------- [15:255 -1:255 29 0] [0x2 2 1 [17 0] [21 4]] (REQUEST)
r 1.003732445 _19_ MAC  --- 0 AODV 48 [0 ffffffff f 800] ------- [15:255 -1:255 29 0] [0x2 2 1 [17 0] [21 4]] (REQUEST)
r 1.003732515 _18_ MAC  --- 0 AODV 48 [0 ffffffff f 800] ------- [15:255 -1:255 29 0] [0x2 2 1 [17 0] [21 4]] (REQUEST)
r 1.003732531 _24_ MAC  --- 0 AODV 48 [0 ffffffff f 800] ------- [15:255 -1:255 29 0] [0x2 2 1 [17 0] [21 4]] (REQUEST)
r 1.003757127 _22_ RTR  --- 0 AODV 48 [0 ffffffff f 800] ------- [15:255 -1:255 29 0] [0x2 2 1 [17 0] [21 4]] (REQUEST)
r 1.003757145 _21_ RTR  --- 0 AODV 48 [0 ffffffff f 800] ------- [15:255 -1:255 29 0] [0x2 2 1 [17 0] [21 4]] (REQUEST)
r 1.003757161 _20_ RTR  --- 0 AODV 48 [0 ffffffff f 800] ------- [15:255 -1:255 29 0] [0x2 2 1 [17 0] [21 4]] (REQUEST)
r 1.003757249 _1_ RTR  --- 0 AODV 48 [0 ffffffff f 800] ------- [15:255 -1:255 29 0] [0x2 2 1 [17 0] [21 4]] (REQUEST)
r 1.003757318 _9_ RTR  --- 0 AODV 48 [0 ffffffff f 800] ------- [15:255 -1:255 29 0] [0x2 2 1 [17 0] [21 4]] (REQUEST)
r 1.003757338 _4_ RTR  --- 0 AODV 48 [0 ffffffff f 800] ------- [15:255 -1:255 29 0] [0x2 2 1 [17 0] [21 4]] (REQUEST)
r 1.003757384 _23_ RTR  --- 0 AODV 48 [0 ffffffff f 800] ------- [15:255 -1:255 29 0] [0x2 2 1 [17 0] [21 4]] (REQUEST)
r 1.003757445 _19_ RTR  --- 0 AODV 48 [0 ffffffff f 800] ------- [15:255 -1:255 29 0] [0x2 2 1 [17 0] [21 4]] (REQUEST)
r 1.003757515 _18_ RTR  --- 0 AODV 48 [0 ffffffff f 800] ------- [15:255 -1:255 29 0] [0x2 2 1 [17 0] [21 4]] (REQUEST)
r 1.003757531 _24_ RTR  --- 0 AODV 48 [0 ffffffff f 800] ------- [15:255 -1:255 29 0] [0x2 2 1 [17 0] [21 4]] (REQUEST)
s 1.004185284 _4_ RTR  --- 0 AODV 48 [0 ffffffff f 800] ------- [4:255 -1:255 28 0] [0x2 3 1 [17 0] [21 4]] (REQUEST)
s 1.004500284 _4_ MAC  --- 0 AODV 106 [0 ffffffff 4 800] ------- [4:255 -1:255 28 0] [0x2 3 1 [17 0] [21 4]] (REQUEST)
s 1.004895598 _18_ RTR  --- 0 AODV 48 [0 ffffffff f 800] ------- [18:255 -1:255 28 0] [0x2 3 1 [17 0] [21 4]] (REQUEST)
r 1.005348706 _1_ MAC  --- 0 AODV 48 [0 ffffffff 4 800] ------- [4:255 -1:255 28 0] [0x2 3 1 [17 0] [21 4]] (REQUEST)
r 1.005348724 _3_ MAC  --- 0 AODV 48 [0 ffffffff 4 800] ------- [4:255 -1:255 28 0] [0x2 3 1 [17 0] [21 4]] (REQUEST)
r 1.005348771 _18_ MAC  --- 0 AODV 48 [0 ffffffff 4 800] ------- [4:255 -1:255 28 0] [0x2 3 1 [17 0] [21 4]] (REQUEST)
r 1.005348848 _7_ MAC  --- 0 AODV 48 [0 ffffffff 4 800] ------- [4:255 -1:255 28 0] [0x2 3 1 [17 0] [21 4]] (REQUEST)
r 1.005348915 _19_ MAC  --- 0 AODV 48 [0 ffffffff 4 800] ------- [4:255 -1:255 28 0] [0x2 3 1 [17 0] [21 4]] (REQUEST)
r 1.005348922 _15_ MAC  --- 0 AODV 48 [0 ffffffff 4 800] ------- [4:255 -1:255 28 0] [0x2 3 1 [17 0] [21 4]] (REQUEST)
r 1.005348933 _0_ MAC  --- 0 AODV 48 [0 ffffffff 4 800] ------- [4:255 -1:255 28 0] [0x2 3 1 [17 0] [21 4]] (REQUEST)
r 1.005349014 _9_ MAC  --- 0 AODV 48 [0 ffffffff 4 800] ------- [4:255 -1:255 28 0] [0x2 3 1 [17 0] [21 4]] (REQUEST)
r 1.005349019 _8_ MAC  --- 0 AODV 48 [0 ffffffff 4 800] ------- [4:255 -1:255 28 0] [0x2 3 1 [17 0] [21 4]] (REQUEST)
r 1.005349027 _5_ MAC  --- 0 AODV 48 [0 ffffffff 4 800] ------- [4:255 -1:255 28 0] [0x2 3 1 [17 0] [21 4]] (REQUEST)
r 1.005349100 _20_ MAC  --- 0 AODV 48 [0 ffffffff 4 800] ------- [4:255 -1:255 28 0] [0x2 3 1 [17 0] [21 4]] (REQUEST)
r 1.005349112 _2_ MAC  --- 0 AODV 48 [0 ffffffff 4 800] ------- [4:255 -1:255 28 0] [0x2 3 1 [17 0] [21 4]] (REQUEST)
r 1.005373706 _1_ RTR  --- 0 AODV 48 [0 ffffffff 4 800] ------- [4:255 -1:255 28 0] [0x2 3 1 [17 0] [21 4]] (REQUEST)
r 1.005373724 _3_ RTR  --- 0 AODV 48 [0 ffffffff 4 800] ------- [4:255 -1:255 28 0] [0x2 3 1 [17 0] [21 4]] (REQUEST)
r 1.005373771 _18_ RTR  --- 0 AODV 48 [0 ffffffff 4 800] ------- [4:255 -1:255 28 0] [0x2 3 1 [17 0] [21 4]] (REQUEST)
r 1.005373848 _7_ RTR  --- 0 AODV 48 [0 ffffffff 4 800] ------- [4:255 -1:255 28 0] [0x2 3 1 [17 0] [21 4]] (REQUEST)
s 1.005373848 _7_ RTR  --- 0 AODV 44 [0 0 0 0] ------- [7:255 21:255 30 4] [0x4 1 [17 4] 10.000000] (REPLY)
r 1.005373915 _19_ RTR  --- 0 AODV 48 [0 ffffffff 4 800] ------- [4:255 -1:255 28 0] [0x2 3 1 [17 0] [21 4]] (REQUEST)
r 1.005373922 _15_ RTR  --- 0 AODV 48 [0 ffffffff 4 800] ------- [4:255 -1:255 28 0] [0x2 3 1 [17 0] [21 4]] (REQUEST)
r 1.005373933 _0_ RTR  --- 0 AODV 48 [0 ffffffff 4 800] ------- [4:255 -1:255 28 0] [0x2 3 1 [17 0] [21 4]] (REQUEST)
r 1.005374014 _9_ RTR  --- 0 AODV 48 [0 ffffffff 4 800] ------- [4:255 -1:255 28 0] [0x2 3 1 [17 0] [21 4]] (REQUEST)
r 1.005374019 _8_ RTR  --- 0 AODV 48 [0 ffffffff 4 800] ------- [4:255 -1:255 28 0] [0x2 3 1 [17 0] [21 4]] (REQUEST)
r 1.005374027 _5_ RTR  --- 0 AODV 48 [0 ffffffff 4 800] ------- [4:255 -1:255 28 0] [0x2 3 1 [17 0] [21 4]] (REQUEST)
r 1.005374100 _20_ RTR  --- 0 AODV 48 [0 ffffffff 4 800] ------- [4:255 -1:255 28 0] [0x2 3 1 [17 0] [21 4]] (REQUEST)
r 1.005374112 _2_ RTR  --- 0 AODV 48 [0 ffffffff 4 800] ------- [4:255 -1:255 28 0] [0x2 3 1 [17 0] [21 4]] (REQUEST)
s 1.005398703 _1_ RTR  --- 0 AODV 48 [0 ffffffff f 800] ------- [1:255 -1:255 28 0] [0x2 3 1 [17 0] [21 4]] (REQUEST)
s 1.005558771 _18_ MAC  --- 0 AODV 106 [0 ffffffff 12 800] ------- [18:255 -1:255 28 0] [0x2 3 1 [17 0] [21 4]] (REQUEST)
s 1.005749844 _9_ RTR  --- 0 AODV 48 [0 ffffffff 16 800] ------- [9:255 -1:255 28 0] [0x2 3 1 [17 0] [21 4]] (REQUEST)
s 1.005820250 _20_ RTR  --- 0 AODV 48 [0 ffffffff 15 800] ------- [20:255 -1:255 29 0] [0x2 2 1 [17 0] [21 4]] (REQUEST)
s 1.006315112 _3_ RTR  --- 0 AODV 48 [0 ffffffff 4 800] ------- [3:255 -1:255 27 0] [0x2 4 1 [17 0] [21 4]] (REQUEST)
r 1.006407012 _7_ MAC  --- 0 AODV 48 [0 ffffffff 12 800] ------- [18:255 -1:255 28 0] [0x2 3 1 [17 0] [21 4]] (REQUEST)
r 1.006407199 _10_ MAC  --- 0 AODV 48 [0 ffffffff 12 800] ------- [18:255 -1:255 28 0] [0x2 3 1 [17 0] [21 4]] (REQUEST)
r 1.006407235 _9_ MAC  --- 0 AODV 48 [0 ffffffff 12 800] ------- [18:255 -1:255 28 0] [0x2 3 1 [17 0] [21 4]] (REQUEST)
r 1.006407258 _4_ MAC  --- 0 AODV 48 [0 ffffffff 12 800] ------- [18:255 -1:255 28 0] [0x2 3 1 [17 0] [21 4]] (REQUEST)
r 1.006407266 _6_ MAC  --- 0 AODV 48 [0 ffffffff 12 800] ------- [18:255 -1:255 28 0] [0x2 3 1 [17 0] [21 4]] (REQUEST)
r 1.006407332 _13_ MAC  --- 0 AODV 48 [0 ffffffff 12 800] ------- [18:255 -1:255 28 0] [0x2 3 1 [17 0] [21 4]] (REQUEST)
r 1.006407337 _8_ MAC  --- 0 AODV 48 [0 ffffffff 12 800] ------- [18:255 -1:255 28 0] [0x2 3 1 [17 0] [21 4]] (REQUEST)
r 1.006407344 _12_ MAC  --- 0 AODV 48 [0 ffffffff 12 800] ------- [18:255 -1:255 28 0] [0x2 3 1 [17 0] [21 4]] (REQUEST)
r 1.006407516 _3_ MAC  --- 0 AODV 48 [0 ffffffff 12 800] ------- [18:255 -1:255 28 0] [0x2 3 1 [17 0] [21 4]] (REQUEST)
r 1.006407528 _5_ MAC  --- 0 AODV 48 [0 ffffffff 12 800] ------- [18:255 -1:255 28 0] [0x2 3 1 [17 0] [21 4]] (REQUEST)
r 1.006407533 _11_ MAC  --- 0 AODV 48 [0 ffffffff 12 800] ------- [18:255 -1:255 28 0] [0x2 3 1 [17 0] [21 4]] (REQUEST)
r 1.006407586 _15_ MAC  --- 0 AODV 48 [0 ffffffff 12 800] ------- [18:255 -1:255 28 0] [0x2 3 1 [17 0] [21 4]] (REQUEST)
r 1.006432012 _7_ RTR  --- 0 AODV 48 [0 ffffffff 12 800] ------- [18:255 -1:255 28 0] [0x2 3 1 [17 0] [21 4]] (REQUEST)
r 1.006432199 _10_ RTR  --- 0 AODV 48 [0 ffffffff 12 800] ------- [18:255 -1:255 28 0] [0x2 3 1 [17 0] [21 4]] (REQUEST)
r 1.006432235 _9_ RTR  --- 0 AODV 48 [0 ffffffff 12 800] ------- [18:255 -1:255 28 0] [0x2 3 1 [17 0] [21 4]] (REQUEST)
r 1.006432258 _4_ RTR  --- 0 AODV 48 [0 ffffffff 12 800] ------- [18:255 -1:255 28 0] [0x2 3 1 [17 0] [21 4]] (REQUEST)
r 1.006432266 _6_ RTR  --- 0 AODV 48 [0 ffffffff 12 800] ------- [18:255 -1:255 28 0] [0x2 3 1 [17 0] [21 4]] (REQUEST)
r 1.006432332 _13_ RTR  --- 0 AODV 48 [0 ffffffff 12 800] ------- [18:255 -1:255 28 0] [0x2 3 1 [17 0] [21 4]] (REQUEST)
s 1.006432332 _13_ RTR  --- 0 AODV 44 [0 0 0 0] ------- [13:255 21:255 30 18] [0x4 1 [17 4] 10.000000] (REPLY)
r 1.006432337 _8_ RTR  --- 0 AODV 48 [0 ffffffff 12 800] ------- [18:255 -1:255 28 0] [0x2 3 1 [17 0] [21 4]] (REQUEST)
r 1.006432344 _12_ RTR  --- 0 AODV 48 [0 ffffffff 12 800] ------- [18:255 -1:255 28 0] [0x2 3 1 [17 0] [21 4]] (REQUEST)
r 1.006432516 _3_ RTR  --- 0 AODV 48 [0 ffffffff 12 800] ------- [18:255 -1:255 28 0] [0x2 3 1 [17 0] [21 4]] (REQUEST)
r 1.006432528 _5_ RTR  --- 0 AODV 48 [0 ffffffff 12 800] ------- [18:255 -1:255 28 0] [0x2 3 1 [17 0] [21 4]] (REQUEST)
r 1.006432533 _11_ RTR  --- 0 AODV 48 [0 ffffffff 12 800] ------- [18:255 -1:255 28 0] [0x2 3 1 [17 0] [21 4]] (REQUEST)
r 1.006432586 _15_ RTR  --- 0 AODV 48 [0 ffffffff 12 800] ------- [18:255 -1:255 28 0] [0x2 3 1 [17 0] [21 4]] (REQUEST)
s 1.006577012 _7_ MAC  --- 0 ARP 86 [0 ffffffff 7 806] ------- [REQUEST 7/7 0/4]
r 1.007265253 _18_ MAC  --- 0 ARP 28 [0 ffffffff 7 806] ------- [REQUEST 7/7 0/4]
r 1.007265295 _10_ MAC  --- 0 ARP 28 [0 ffffffff 7 806] ------- [REQUEST 7/7 0/4]
r 1.007265340 _8_ MAC  --- 0 ARP 28 [0 ffffffff 7 806] ------- [REQUEST 7/7 0/4]
r 1.007265530 _6_ MAC  --- 0 ARP 28 [0 ffffffff 7 806] ------- [REQUEST 7/7 0/4]
r 1.007265542 _13_ MAC  --- 0 ARP 28 [0 ffffffff 7 806] ------- [REQUEST 7/7 0/4]
r 1.007265556 _11_ MAC  --- 0 ARP 28 [0 ffffffff 7 806] ------- [REQUEST 7/7 0/4]
r 1.007265562 _5_ MAC  --- 0 ARP 28 [0 ffffffff 7 806] ------- [REQUEST 7/7 0/4]
r 1.007265576 _4_ MAC  --- 0 ARP 28 [0 ffffffff 7 806] ------- [REQUEST 7/7 0/4]
r 1.007265676 _3_ MAC  --- 0 ARP 28 [0 ffffffff 7 806] ------- [REQUEST 7/7 0/4]
r 1.007265705 _14_ MAC  --- 0 ARP 28 [0 ffffffff 7 806] ------- [REQUEST 7/7 0/4]
r 1.007265711 _9_ MAC  --- 0 ARP 28 [0 ffffffff 7 806] ------- [REQUEST 7/7 0/4]
r 1.007265771 _12_ MAC  --- 0 ARP 28 [0 ffffffff 7 806] ------- [REQUEST 7/7 0/4]
r 1.007265812 _16_ MAC  --- 0 ARP 28 [0 ffffffff 7 806] ------- [REQUEST 7/7 0/4]
r 1.007265824 _2_ MAC  --- 0 ARP 28 [0 ffffffff 7 806] ------- [REQUEST 7/7 0/4]
s 1.007375542 _13_ MAC  --- 0 ARP 86 [0 ffffffff d 806] ------- [REQUEST 13/13 0/18]
s 1.007375711 _9_ MAC  --- 0 AODV 106 [0 ffffffff 9 800] ------- [9:255 -1:255 28 0] [0x2 3 1 [17 0] [21 4]] (REQUEST)
D 1.007376175 _18_ MAC  COL 0 ARP 86 [0 ffffffff d 806] ------- [REQUEST 13/13 0/18]
D 1.007376410 _7_ MAC  COL 0 ARP 86 [0 ffffffff d 806] ------- [REQUEST 13/13 0/18]
D 1.007376738 _8_ MAC  COL 0 ARP 86 [0 ffffffff d 806] ------- [REQUEST 13/13 0/18]
s 1.007954907 _5_ RTR  --- 0 AODV 48 [0 ffffffff 4 800] ------- [5:255 -1:255 27 0] [0x2 4 1 [17 0] [21 4]] (REQUEST)
r 1.008063666 _6_ MAC  --- 0 ARP 28 [0 ffffffff d 806] ------- [REQUEST 13/13 0/18]
r 1.008063839 _10_ MAC  --- 0 ARP 28 [0 ffffffff d 806] ------- [REQUEST 13/13 0/18]
r 1.008063994 _14_ MAC  --- 0 ARP 28 [0 ffffffff d 806] ------- [REQUEST 13/13 0/18]
r 1.008064118 _11_ MAC  --- 0 ARP 28 [0 ffffffff d 806] ------- [REQUEST 13/13 0/18]
r 1.008224009 _12_ MAC  --- 0 AODV 48 [0 ffffffff 9 800] ------- [9:255 -1:255 28 0] [0x2 3 1 [17 0] [21 4]] (REQUEST)
D 1.008224175 _18_ MAC  COL 0 AODV 106 [0 ffffffff 9 800] ------- [9:255 -1:255 28 0] [0x2 3 1 [17 0] [21 4]] (REQUEST)
r 1.008224328 _24_ MAC  --- 0 AODV 48 [0 ffffffff 9 800] ------- [9:255 -1:255 28 0] [0x2 3 1 [17 0] [21 4]] (REQUEST)
r 1.008224329 _15_ MAC  --- 0 AODV 48 [0 ffffffff 9 800] ------- [9:255 -1:255 28 0] [0x2 3 1 [17 0] [21 4]] (REQUEST)
D 1.008224410 _7_ MAC  COL 0 AODV 106 [0 ffffffff 9 800] ------- [9:255 -1:255 28 0] [0x2 3 1 [17 0] [21 4]] (REQUEST)
D 1.008224441 _4_ MAC  COL 0 AODV 106 [0 ffffffff 9 800] ------- [9:255 -1:255 28 0] [0x2 3 1 [17 0] [21 4]] (REQUEST)
r 1.008224491 _22_ MAC  --- 0 AODV 48 [0 ffffffff 9 800] ------- [9:255 -1:255 28 0] [0x2 3 1 [17 0] [21 4]] (REQUEST)
r 1.008224498 _23_ MAC  --- 0 AODV 48 [0 ffffffff 9 800] ------- [9:255 -1:255 28 0] [0x2 3 1 [17 0] [21 4]] (REQUEST)
r 1.008249009 _12_ RTR  --- 0 AODV 48 [0 ffffffff 9 800] ------- [9:255 -1:255 28 0] [0x2 3 1 [17 0] [21 4]] (REQUEST)
r 1.008249328 _24_ RTR  --- 0 AODV 48 [0 ffffffff 9 800] ------- [9:255 -1:255 28 0] [0x2 3 1 [17 0] [21 4]] (REQUEST)
r 1.008249329 _15_ RTR  --- 0 AODV 48 [0 ffffffff 9 800] ------- [9:255 -1:255 28 0] [0x2 3 1 [17 0] [21 4]] (REQUEST)
r 1.008249491 _22_ RTR  --- 0 AODV 48 [0 ffffffff 9 800] ------- [9:255 -1:255 28 0] [0x2 3 1 [17 0] [21 4]] (REQUEST)
r 1.008249498 _23_ RTR  --- 0 AODV 48 [0 ffffffff 9 800] ------- [9:255 -1:255 28 0] [0x2 3 1 [17 0] [21 4]] (REQUEST)
s 1.008778441 _4_ MAC  --- 0 RTS 44 [52e 7 4 0] 
s 1.008844455 _10_ RTR  --- 0 AODV 48 [0 ffffffff 12 800] ------- [10:255 -1:255 27 0] [0x2 4 1 [17 0] [21 4]] (REQUEST)
s 1.008861429 _8_ RTR  --- 0 AODV 48 [0 ffffffff 4 800] ------- [8:255 -1:255 27 0] [0x2 4 1 [17 0] [21 4]] (REQUEST)
s 1.009047549 _24_ RTR  --- 0 AODV 48 [0 ffffffff 16 800] ------- [24:255 -1:255 28 0] [0x2 3 1 [17 0] [21 4]] (REQUEST)
r 1.009131005 _7_ MAC  --- 0 RTS 44 [52e 7 4 0] 
s 1.009141005 _7_ MAC  --- 0 CTS 38 [3f4 4 0 0] 
s 1.009400083 _23_ RTR  --- 0 AODV 48 [0 ffffffff 15 800] ------- [23:255 -1:255 29 0] [0x2 2 1 [17 0] [21 4]] (REQUEST)
r 1.009445569 _4_ MAC  --- 0 CTS 38 [3f4 4 0 0] 
s 1.009455569 _4_ MAC  --- 0 ARP 86 [13a 7 4 806] ------- [REPLY 4/4 7/7]
s 1.009460968 _2_ RTR  --- 0 AODV 48 [0 ffffffff 4 800] ------- [2:255 -1:255 27 0] [0x2 4 1 [17 0] [21 4]] (REQUEST)
r 1.010144133 _7_ MAC  --- 0 ARP 28 [13a 7 4 806] ------- [REPLY 4/4 7/7]
s 1.010154133 _7_ MAC  --- 0 ACK 38 [0 4 0 0] 
s 1.010158122 _19_ RTR  --- 0 AODV 48 [0 ffffffff f 800] ------- [19:255 -1:255 28 0] [0x2 3 1 [17 0] [21 4]] (REQUEST)
r 1.010458697 _4_ MAC  --- 0 ACK 38 [0 4 0 0] 
s 1.010568945 _2_ MAC  --- 0 AODV 106 [0 ffffffff 2 800] ------- [2:255 -1:255 27 0] [0x2 4 1 [17 0] [21 4]] (REQUEST)
s 1.011073447 _24_ MAC  --- 0 AODV 106 [0 ffffffff 18 800] ------- [24:255 -1:255 28 0] [0x2 3 1 [17 0] [21 4]] (REQUEST)
D 1.011074715 _4_ MAC  COL 0 AODV 106 [0 ffffffff 2 800] ------- [2:255 -1:255 27 0] [0x2 4 1 [17 0] [21 4]] (REQUEST)
D 1.011074761 _7_ MAC  COL 0 AODV 106 [0 ffffffff 2 800] ------- [2:255 -1:255 27 0] [0x2 4 1 [17 0] [21 4]] (REQUEST)
r 1.011417244 _5_ MAC  --- 0 AODV 48 [0 ffffffff 2 800] ------- [2:255 -1:255 27 0] [0x2 4 1 [17 0] [21 4]] (REQUEST)
r 1.011417358 _3_ MAC  --- 0 AODV 48 [0 ffffffff 2 800] ------- [2:255 -1:255 27 0] [0x2 4 1 [17 0] [21 4]] (REQUEST)
r 1.011417387 _17_ MAC  --- 0 AODV 48 [0 ffffffff 2 800] ------- [2:255 -1:255 27 0] [0x2 4 1 [17 0] [21 4]] (REQUEST)
r 1.011417445 _0_ MAC  --- 0 AODV 48 [0 ffffffff 2 800] ------- [2:255 -1:255 27 0] [0x2 4 1 [17 0] [21 4]] (REQUEST)
r 1.011417527 _8_ MAC  --- 0 AODV 48 [0 ffffffff 2 800] ------- [2:255 -1:255 27 0] [0x2 4 1 [17 0] [21 4]] (REQUEST)
r 1.011417572 _16_ MAC  --- 0 AODV 48 [0 ffffffff 2 800] ------- [2:255 -1:255 27 0] [0x2 4 1 [17 0] [21 4]] (REQUEST)
r 1.011442244 _5_ RTR  --- 0 AODV 48 [0 ffffffff 2 800] ------- [2:255 -1:255 27 0] [0x2 4 1 [17 0] [21 4]] (REQUEST)
r 1.011442358 _3_ RTR  --- 0 AODV 48 [0 ffffffff 2 800] ------- [2:255 -1:255 27 0] [0x2 4 1 [17 0] [21 4]] (REQUEST)
r 1.011442387 _17_ RTR  --- 0 AODV 48 [0 ffffffff 2 800] ------- [2:255 -1:255 27 0] [0x2 4 1 [17 0] [21 4]] (REQUEST)
s 1.011442387 _17_ RTR  --- 0 AODV 44 [0 0 0 0] ------- [17:255 21:255 30 2] [0x4 1 [17 4] 10.000000] (REPLY)
r 1.011442445 _0_ RTR  --- 0 AODV 48 [0 ffffffff 2 800] ------- [2:255 -1:255 27 0] [0x2 4 1 [17 0] [21 4]] (REQUEST)
r 1.011442527 _8_ RTR  --- 0 AODV 48 [0 ffffffff 2 800] ------- [2:255 -1:255 27 0] [0x2 4 1 [17 0] [21 4]] (REQUEST)
r 1.011442572 _16_ RTR  --- 0 AODV 48 [0 ffffffff 2 800] ------- [2:255 -1:255 27 0] [0x2 4 1 [17 0] [21 4]] (REQUEST)
s 1.011777387 _17_ MAC  --- 0 ARP 86 [0 ffffffff 11 806] ------- [REQUEST 17/17 0/2]
r 1.011921823 _23_ MAC  --- 0 AODV 48 [0 ffffffff 18 800] ------- [24:255 -1:255 28 0] [0x2 3 1 [17 0] [21 4]] (REQUEST)
D 1.011922065 _9_ MAC  COL 0 AODV 106 [0 ffffffff 18 800] ------- [24:255 -1:255 28 0] [0x2 3 1 [17 0] [21 4]] (REQUEST)
r 1.011922072 _22_ MAC  --- 0 AODV 48 [0 ffffffff 18 800] ------- [24:255 -1:255 28 0] [0x2 3 1 [17 0] [21 4]] (REQUEST)
D 1.011922101 _12_ MAC  COL 0 AODV 106 [0 ffffffff 18 800] ------- [24:255 -1:255 28 0] [0x2 3 1 [17 0] [21 4]] (REQUEST)
D 1.011922278 _15_ MAC  COL 0 AODV 106 [0 ffffffff 18 800] ------- [24:255 -1:255 28 0] [0x2 3 1 [17 0] [21 4]] (REQUEST)
r 1.011946823 _23_ RTR  --- 0 AODV 48 [0 ffffffff 18 800] ------- [24:255 -1:255 28 0] [0x2 3 1 [17 0] [21 4]] (REQUEST)
r 1.011947072 _22_ RTR  --- 0 AODV 48 [0 ffffffff 18 800] ------- [24:255 -1:255 28 0] [0x2 3 1 [17 0] [21 4]] (REQUEST)
s 1.012351823 _23_ MAC  --- 0 AODV 106 [0 ffffffff 17 800] ------- [23:255 -1:255 29 0] [0x2 2 1 [17 0] [21 4]] (REQUEST)
r 1.012465684 _16_ MAC  --- 0 ARP 28 [0 ffffffff 11 806] ------- [REQUEST 17/17 0/2]
r 1.012465819 _5_ MAC  --- 0 ARP 28 [0 ffffffff 11 806] ------- [REQUEST 17/17 0/2]
r 1.012465828 _2_ MAC  --- 0 ARP 28 [0 ffffffff 11 806] ------- [REQUEST 17/17 0/2]
r 1.012465999 _8_ MAC  --- 0 ARP 28 [0 ffffffff 11 806] ------- [REQUEST 17/17 0/2]
r 1.012466121 _11_ MAC  --- 0 ARP 28 [0 ffffffff 11 806] ------- [REQUEST 17/17 0/2]
r 1.012466203 _3_ MAC  --- 0 ARP 28 [0 ffffffff 11 806] ------- [REQUEST 17/17 0/2]
s 1.012595819 _5_ MAC  --- 0 AODV 106 [0 ffffffff 5 800] ------- [5:255 -1:255 27 0] [0x2 4 1 [17 0] [21 4]] (REQUEST)
D 1.012597035 _9_ MAC  COL 0 AODV 106 [0 ffffffff 17 800] ------- [23:255 -1:255 29 0] [0x2 2 1 [17 0] [21 4]] (REQUEST)
r 1.013200144 _22_ MAC  --- 0 AODV 48 [0 ffffffff 17 800] ------- [23:255 -1:255 29 0] [0x2 2 1 [17 0] [21 4]] (REQUEST)
r 1.013200199 _24_ MAC  --- 0 AODV 48 [0 ffffffff 17 800] ------- [23:255 -1:255 29 0] [0x2 2 1 [17 0] [21 4]] (REQUEST)
r 1.013200351 _21_ MAC  --- 0 AODV 48 [0 ffffffff 17 800] ------- [23:255 -1:255 29 0] [0x2 2 1 [17 0] [21 4]] (REQUEST)
r 1.013200507 _15_ MAC  --- 0 AODV 48 [0 ffffffff 17 800] ------- [23:255 -1:255 29 0] [0x2 2 1 [17 0] [21 4]] (REQUEST)
s 1.013205834 _12_ RTR  --- 0 AODV 48 [0 ffffffff 12 800] ------- [12:255 -1:255 27 0] [0x2 4 1 [17 0] [21 4]] (REQUEST)
r 1.013225144 _22_ RTR  --- 0 AODV 48 [0 ffffffff 17 800] ------- [23:255 -1:255 29 0] [0x2 2 1 [17 0] [21 4]] (REQUEST)
r 1.013225199 _24_ RTR  --- 0 AODV 48 [0 ffffffff 17 800] ------- [23:255 -1:255 29 0] [0x2 2 1 [17 0] [21 4]] (REQUEST)
r 1.013225351 _21_ RTR  --- 0 AODV 48 [0 ffffffff 17 800] ------- [23:255 -1:255 29 0] [0x2 2 1 [17 0] [21 4]] (REQUEST)
r 1.013225507 _15_ RTR  --- 0 AODV 48 [0 ffffffff 17 800] ------- [23:255 -1:255 29 0] [0x2 2 1 [17 0] [21 4]] (REQUEST)
r 1.013444104 _8_ MAC  --- 0 AODV 48 [0 ffffffff 5 800] ------- [5:255 -1:255 27 0] [0x2 4 1 [17 0] [21 4]] (REQUEST)
r 1.013444118 _2_ MAC  --- 0 AODV 48 [0 ffffffff 5 800] ------- [5:255 -1:255 27 0] [0x2 4 1 [17 0] [21 4]] (REQUEST)
s 1.013444218 _0_ RTR  --- 0 AODV 48 [0 ffffffff 4 800] ------- [0:255 -1:255 27 0] [0x2 4 1 [17 0] [21 4]] (REQUEST)
r 1.013444252 _17_ MAC  --- 0 AODV 48 [0 ffffffff 5 800] ------- [5:255 -1:255 27 0] [0x2 4 1 [17 0] [21 4]] (REQUEST)
r 1.013444273 _3_ MAC  --- 0 AODV 48 [0 ffffffff 5 800] ------- [5:255 -1:255 27 0] [0x2 4 1 [17 0] [21 4]] (REQUEST)
r 1.013444276 _16_ MAC  --- 0 AODV 48 [0 ffffffff 5 800] ------- [5:255 -1:255 27 0] [0x2 4 1 [17 0] [21 4]] (REQUEST)
D 1.013444369 _7_ MAC  COL 0 AODV 106 [0 ffffffff 5 800] ------- [5:255 -1:255 27 0] [0x2 4 1 [17 0] [21 4]] (REQUEST)
r 1.013444427 _11_ MAC  --- 0 AODV 48 [0 ffffffff 5 800] ------- [5:255 -1:255 27 0] [0x2 4 1 [17 0] [21 4]] (REQUEST)
r 1.013444501 _0_ MAC  --- 0 AODV 48 [0 ffffffff 5 800] ------- [5:255 -1:255 27 0] [0x2 4 1 [17 0] [21 4]] (REQUEST)
D 1.013444510 _10_ MAC  COL 0 AODV 106 [0 ffffffff 5 800] ------- [5:255 -1:255 27 0] [0x2 4 1 [17 0] [21 4]] (REQUEST)
D 1.013444563 _4_ MAC  COL 0 AODV 106 [0 ffffffff 5 800] ------- [5:255 -1:255 27 0] [0x2 4 1 [17 0] [21 4]] (REQUEST)
D 1.013444576 _18_ MAC  COL 0 AODV 106 [0 ffffffff 5 800] ------- [5:255 -1:255 27 0] [0x2 4 1 [17 0] [21 4]] (REQUEST)
r 1.013469104 _8_ RTR  --- 0 AODV 48 [0 ffffffff 5 800] ------- [5:255 -1:255 27 0] [0x2 4 1 [17 0] [21 4]] (REQUEST)
r 1.013469118 _2_ RTR  --- 0 AODV 48 [0 ffffffff 5 800] ------- [5:255 -1:255 27 0] [0x2 4 1 [17 0] [21 4]] (REQUEST)
r 1.013469252 _17_ RTR  --- 0 AODV 48 [0 ffffffff 5 800] ------- [5:255 -1:255 27 0] [0x2 4 1 [17 0] [21 4]] (REQUEST)
r 1.013469273 _3_ RTR  --- 0 AODV 48 [0 ffffffff 5 800] ------- [5:255 -1:255 27 0] [0x2 4 1 [17 0] [21 4]] (REQUEST)
r 1.013469276 _16_ RTR  --- 0 AODV 48 [0 ffffffff 5 800] ------- [5:255 -1:255 27 0] [0x2 4 1 [17 0] [21 4]] (REQUEST)
r 1.013469427 _11_ RTR  --- 0 AODV 48 [0 ffffffff 5 800] ------- [5:255 -1:255 27 0] [0x2 4 1 [17 0] [21 4]] (REQUEST)
r 1.013469501 _0_ RTR  --- 0 AODV 48 [0 ffffffff 5 800] ------- [5:255 -1:255 27 0] [0x2 4 1 [17 0] [21 4]] (REQUEST)
s 1.013599218 _0_ MAC  --- 0 AODV 106 [0 ffffffff 0 800] ------- [0:255 -1:255 27 0] [0x2 4 1 [17 0] [21 4]] (REQUEST)
s 1.014054852 _11_ RTR  --- 0 AODV 48 [0 ffffffff 12 800] ------- [11:255 -1:255 27 0] [0x2 4 1 [17 0] [21 4]] (REQUEST)
r 1.014447522 _3_ MAC  --- 0 AODV 48 [0 ffffffff 0 800] ------- [0:255 -1:255 27 0] [0x2 4 1 [17 0] [21 4]] (REQUEST)
r 1.014447718 _2_ MAC  --- 0 AODV 48 [0 ffffffff 0 800] ------- [0:255 -1:255 27 0] [0x2 4 1 [17 0] [21 4]] (REQUEST)
r 1.014447867 _4_ MAC  --- 0 AODV 48 [0 ffffffff 0 800] ------- [0:255 -1:255 27 0] [0x2 4 1 [17 0] [21 4]] (REQUEST)
r 1.014447900 _5_ MAC  --- 0 AODV 48 [0 ffffffff 0 800] ------- [0:255 -1:255 27 0] [0x2 4 1 [17 0] [21 4]] (REQUEST)
r 1.014447912 _19_ MAC  --- 0 AODV 48 [0 ffffffff 0 800] ------- [0:255 -1:255 27 0] [0x2 4 1 [17 0] [21 4]] (REQUEST)
r 1.014447923 _1_ MAC  --- 0 AODV 48 [0 ffffffff 0 800] ------- [0:255 -1:255 27 0] [0x2 4 1 [17 0] [21 4]] (REQUEST)
r 1.014472522 _3_ RTR  --- 0 AODV 48 [0 ffffffff 0 800] ------- [0:255 -1:255 27 0] [0x2 4 1 [17 0] [21 4]] (REQUEST)
r 1.014472718 _2_ RTR  --- 0 AODV 48 [0 ffffffff 0 800] ------- [0:255 -1:255 27 0] [0x2 4 1 [17 0] [21 4]] (REQUEST)
r 1.014472867 _4_ RTR  --- 0 AODV 48 [0 ffffffff 0 800] ------- [0:255 -1:255 27 0] [0x2 4 1 [17 0] [21 4]] (REQUEST)
r 1.014472900 _5_ RTR  --- 0 AODV 48 [0 ffffffff 0 800] ------- [0:255 -1:255 27 0] [0x2 4 1 [17 0] [21 4]] (REQUEST)
r 1.014472912 _19_ RTR  --- 0 AODV 48 [0 ffffffff 0 800] ------- [0:255 -1:255 27 0] [0x2 4 1 [17 0] [21 4]] (REQUEST)
r 1.014472923 _1_ RTR  --- 0 AODV 48 [0 ffffffff 0 800] ------- [0:255 -1:255 27 0] [0x2 4 1 [17 0] [21 4]] (REQUEST)
s 1.014517522 _3_ MAC  --- 0 AODV 106 [0 ffffffff 3 800] ------- [3:255 -1:255 27 0] [0x2 4 1 [17 0] [21 4]] (REQUEST)
s 1.014943332 _6_ RTR  --- 0 AODV 48 [0 ffffffff 12 800] ------- [6:255 -1:255 27 0] [0x2 4 1 [17 0] [21 4]] (REQUEST)
r 1.015365826 _0_ MAC  --- 0 AODV 48 [0 ffffffff 3 800] ------- [3:255 -1:255 27 0] [0x2 4 1 [17 0] [21 4]] (REQUEST)
r 1.015365934 _2_ MAC  --- 0 AODV 48 [0 ffffffff 3 800] ------- [3:255 -1:255 27 0] [0x2 4 1 [17 0] [21 4]] (REQUEST)
r 1.015365962 _4_ MAC  --- 0 AODV 48 [0 ffffffff 3 800] ------- [3:255 -1:255 27 0] [0x2 4 1 [17 0] [21 4]] (REQUEST)
r 1.015365976 _5_ MAC  --- 0 AODV 48 [0 ffffffff 3 800] ------- [3:255 -1:255 27 0] [0x2 4 1 [17 0] [21 4]] (REQUEST)
r 1.015366136 _8_ MAC  --- 0 AODV 48 [0 ffffffff 3 800] ------- [3:255 -1:255 27 0] [0x2 4 1 [17 0] [21 4]] (REQUEST)
r 1.015366186 _7_ MAC  --- 0 AODV 48 [0 ffffffff 3 800] ------- [3:255 -1:255 27 0] [0x2 4 1 [17 0] [21 4]] (REQUEST)
r 1.015366197 _1_ MAC  --- 0 AODV 48 [0 ffffffff 3 800] ------- [3:255 -1:255 27 0] [0x2 4 1 [17 0] [21 4]] (REQUEST)
r 1.015366267 _18_ MAC  --- 0 AODV 48 [0 ffffffff 3 800] ------- [3:255 -1:255 27 0] [0x2 4 1 [17 0] [21 4]] (REQUEST)
r 1.015366288 _19_ MAC  --- 0 AODV 48 [0 ffffffff 3 800] ------- [3:255 -1:255 27 0] [0x2 4 1 [17 0] [21 4]] (REQUEST)
r 1.015366339 _17_ MAC  --- 0 AODV 48 [0 ffffffff 3 800] ------- [3:255 -1:255 27 0] [0x2 4 1 [17 0] [21 4]] (REQUEST)
r 1.015390826 _0_ RTR  --- 0 AODV 48 [0 ffffffff 3 800] ------- [3:255 -1:255 27 0] [0x2 4 1 [17 0] [21 4]] (REQUEST)
r 1.015390934 _2_ RTR  --- 0 AODV 48 [0 ffffffff 3 800] ------- [3:255 -1:255 27 0] [0x2 4 1 [17 0] [21 4]] (REQUEST)
r 1.015390962 _4_ RTR  --- 0 AODV 48 [0 ffffffff 3 800] ------- [3:255 -1:255 27 0] [0x2 4 1 [17 0] [21 4]] (REQUEST)
r 1.015390976 _5_ RTR  --- 0 AODV 48 [0 ffffffff 3 800] ------- [3:255 -1:255 27 0] [0x2 4 1 [17 0] [21 4]] (REQUEST)
r 1.015391136 _8_ RTR  --- 0 AODV 48 [0 ffffffff 3 800] ------- [3:255 -1:255 27 0] [0x2 4 1 [17 0] [21 4]] (REQUEST)
r 1.015391186 _7_ RTR  --- 0 AODV 48 [0 ffffffff 3 800] ------- [3:255 -1:255 27 0] [0x2 4 1 [17 0] [21 4]] (REQUEST)
r 1.015391197 _1_ RTR  --- 0 AODV 48 [0 ffffffff 3 800] ------- [3:255 -1:255 27 0] [0x2 4 1 [17 0] [21 4]] (REQUEST)
r 1.015391267 _18_ RTR  --- 0 AODV 48 [0 ffffffff 3 800] ------- [3:255 -1:255 27 0] [0x2 4 1 [17 0] [21 4]] (REQUEST)
r 1.015391288 _19_ RTR  --- 0 AODV 48 [0 ffffffff 3 800] ------- [3:255 -1:255 27 0] [0x2 4 1 [17 0] [21 4]] (REQUEST)
r 1.015391339 _17_ RTR  --- 0 AODV 48 [0 ffffffff 3 800] ------- [3:255 -1:255 27 0] [0x2 4 1 [17 0] [21 4]] (REQUEST)
s 1.015455934 _2_ MAC  --- 0 RTS 44 [52e 11 2 0] 
r 1.015808376 _17_ MAC  --- 0 RTS 44 [52e 11 2 0] 
s 1.015818376 _17_ MAC  --- 0 CTS 38 [3f4 2 0 0] 
r 1.016122817 _2_ MAC  --- 0 CTS 38 [3f4 2 0 0] 
s 1.016132817 _2_ MAC  --- 0 ARP 86 [13a 11 2 806] ------- [REPLY 2/2 17/17]
r 1.016821259 _17_ MAC  --- 0 ARP 28 [13a 11 2 806] ------- [REPLY 2/2 17/17]
s 1.016831259 _17_ MAC  --- 0 ACK 38 [0 2 0 0] 
r 1.017135700 _2_ MAC  --- 0 ACK 38 [0 2 0 0] 
s 1.017305871 _8_ MAC  --- 0 AODV 106 [0 ffffffff 8 800] ------- [8:255 -1:255 27 0] [0x2 4 1 [17 0] [21 4]] (REQUEST)
s 1.018128811 _16_ RTR  --- 0 AODV 48 [0 ffffffff 2 800] ------- [16:255 -1:255 26 0] [0x2 5 1 [17 0] [21 4]] (REQUEST)
r 1.018154155 _5_ MAC  --- 0 AODV 48 [0 ffffffff 8 800] ------- [8:255 -1:255 27 0] [0x2 4 1 [17 0] [21 4]] (REQUEST)
r 1.018154199 _7_ MAC  --- 0 AODV 48 [0 ffffffff 8 800] ------- [8:255 -1:255 27 0] [0x2 4 1 [17 0] [21 4]] (REQUEST)