+ 0.1 0 1 cbr 500 ------- 1 0.0 2.0 0 0
- 0.1 0 1 cbr 500 ------- 1 0.0 2.0 0 0
r 0.11002 0 1 cbr 500 ------- 1 0.0 2.0 0 0
+ 0.11002 1 2 cbr 500 ------- 1 0.0 2.0 0 0
- 0.11002 1 2 cbr 500 ------- 1 0.0 2.0 0 0
+ 0.15 0 1 cbr 500 ------- 1 0.0 2.0 1 1
- 0.15 0 1 cbr 500 ------- 1 0.0 2.0 1 1
r 0.16002 0 1 cbr 500 ------- 1 0.0 2.0 1 1
+ 0.16002 1 2 cbr 500 ------- 1 0.0 2.0 1 1
- 0.16002 1 2 cbr 500 ------- 1 0.0 2.0 1 1
+ 0.2 0 1 cbr 500 ------- 1 0.0 2.0 2 2
- 0.2 0 1 cbr 500 ------- 1 0.0 2.0 2 2
r 0.21002 0 1 cbr 500 ------- 1 0.0 2.0 2 2
+ 0.21002 1 2 cbr 500 ------- 1 0.0 2.0 2 2
- 0.21002 1 2 cbr 500 ------- 1 0.0 2.0 2 2
+ 0.25 0 1 cbr 500 ------- 1 0.0 2.0 3 3
- 0.25 0 1 cbr 500 ------- 1 0.0 2.0 3 3
r 0.26002 0 1 cbr 500 ------- 1 0.0 2.0 3 3
+ 0.26002 1 2 cbr 500 ------- 1 0.0 2.0 3 3
- 0.26002 1 2 cbr 500 ------- 1 0.0 2.0 3 3
+ 0.3 0 1 cbr 500 ------- 1 0.0 2.0 4 4
- 0.3 0 1 cbr 500 ------- 1 0.0 2.0 4 4
r 0.31002 0 1 cbr 500 ------- 1 0.0 2.0 4 4
+ 0.31002 1 2 cbr 500 ------- 1 0.0 2.0 4 4
- 0.31002 1 2 cbr 500 ------- 1 0.0 2.0 4 4
+ 0.35 0 1 cbr 500 ------- 1 0.0 2.0 5 5
- 0.35 0 1 cbr 500 ------- 1 0.0 2.0 5 5
r 0.36002 0 1 cbr 500 ------- 1 0.0 2.0 5 5
+ 0.36002 1 2 cbr 500 ------- 1 0.0 2.0 5 5
- 0.36002 1 2 cbr 500 ------- 1 0.0 2.0 5 5
+ 0.4 0 1 cbr 500 ------- 1 0.0 2.0 6 6
- 0.4 0 1 cbr 500 ------- 1 0.0 2.0 6 6
r 0.41002 0 1 cbr 500 ------- 1 0.0 2.0 6 6
+ 0.41002 1 2 cbr 500 ------- 1 0.0 2.0 6 6
- 0.41002 1 2 cbr 500 ------- 1 0.0 2.0 6 6
+ 0.45 0 1 cbr 500 ------- 1 0.0 2.0 7 7
- 0.45 0 1 cbr 500 ------- 1 0.0 2.0 7 7
r 0.46002 0 1 cbr 500 ------- 1 0.0 2.0 7 7
+ 0.46002 1 2 cbr 500 ------- 1 0.0 2.0 7 7
- 0.46002 1 2 cbr 500 ------- 1 0.0 2.0 7 7
+ 0.5 0 1 cbr 500 ------- 1 0.0 2.0 8 8
- 0.5 0 1 cbr 500 ------- 1 0.0 2.0 8 8
r 0.51002 0 1 cbr 500 ------- 1 0.0 2.0 8 8
+ 0.51002 1 2 cbr 500 ------- 1 0.0 2.0 8 8
- 0.51002 1 2 cbr 500 ------- 1 0.0 2.0 8 8
+ 0.55 0 1 cbr 500 ------- 1 0.0 2.0 9 9
- 0.55 0 1 cbr 500 ------- 1 0.0 2.0 9 9
r 0.56002 0 1 cbr 500 ------- 1 0.0 2.0 9 9
+ 0.56002 1 2 cbr 500 ------- 1 0.0 2.0 9 9
- 0.56002 1 2 cbr 500 ------- 1 0.0 2.0 9 9
+ 0.6 0 1 cbr 500 ------- 1 0.0 2.0 10 10
- 0.6 0 1 cbr 500 ------- 1 0.0 2.0 10 10
r 0.61002 0 1 cbr 500 ------- 1 0.0 2.0 10 10
+ 0.61002 1 2 cbr 500 ------- 1 0.0 2.0 10 10
- 0.61002 1 2 cbr 500 ------- 1 0.0 2.0 10 10
+ 0.65 0 1 cbr 500 ------- 1 0.0 2.0 11 11
- 0.65 0 1 cbr 500 ------- 1 0.0 2.0 11 11
r 0.66002 0 1 cbr 500 ------- 1 0.0 2.0 11 11
+ 0.66002 1 2 cbr 500 ------- 1 0.0 2.0 11 11
- 0.66002 1 2 cbr 500 ------- 1 0.0 2.0 11 11
+ 0.7 0 1 cbr 500 ------- 1 0.0 2.0 12 12
- 0.7 0 1 cbr 500 ------- 1 0.0 2.0 12 12
r 0.71002 0 1 cbr 500 ------- 1 0.0 2.0 12 12
+ 0.71002 1 2 cbr 500 ------- 1 0.0 2.0 12 12
- 0.71002 1 2 cbr 500 ------- 1 0.0 2.0 12 12
+ 0.75 0 1 cbr 500 ------- 1 0.0 2.0 13 13
- 0.75 0 1 cbr 500 ------- 1 0.0 2.0 13 13
r 0.76002 0 1 cbr 500 ------- 1 0.0 2.0 13 13
+ 0.76002 1 2 cbr 500 ------- 1 0.0 2.0 13 13
- 0.76002 1 2 cbr 500 ------- 1 0.0 2.0 13 13
+ 0.8 0 1 cbr 500 ------- 1 0.0 2.0 14 14
- 0.8 0 1 cbr 500 ------- 1 0.0 2.0 14 14
r 0.81002 0 1 cbr 500 ------- 1 0.0 2.0 14 14
+ 0.81002 1 2 cbr 500 ------- 1 0.0 2.0 14 14
- 0.81002 1 2 cbr 500 ------- 1 0.0 2.0 14 14
+ 0.85 0 1 cbr 500 ------- 1 0.0 2.0 15 15
- 0.85 0 1 cbr 500 ------- 1 0.0 2.0 15 15
r 0.86002 0 1 cbr 500 ------- 1 0.0 2.0 15 15
+ 0.86002 1 2 cbr 500 ------- 1 0.0 2.0 15 15
- 0.86002 1 2 cbr 500 ------- 1 0.0 2.0 15 15
+ 0.9 0 1 cbr 500 ------- 1 0.0 2.0 16 16
- 0.9 0 1 cbr 500 ------- 1 0.0 2.0 16 16
r 0.91002 0 1 cbr 500 ------- 1 0.0 2.0 16 16
+ 0.91002 1 2 cbr 500 ------- 1 0.0 2.0 16 16
- 0.91002 1 2 cbr 500 ------- 1 0.0 2.0 16 16
+ 0.95 0 1 cbr 500 ------- 1 0.0 2.0 17 17
- 0.95 0 1 cbr 500 ------- 1 0.0 2.0 17 17
r 0.96002 0 1 cbr 500 ------- 1 0.0 2.0 17 17
+ 0.96002 1 2 cbr 500 ------- 1 0.0 2.0 17 17
- 0.96002 1 2 cbr 500 ------- 1 0.0 2.0 17 17
