+ 0.1 0 1 tcp 40 ------- 1 0.0 2.0 0 0
- 0.1 0 1 tcp 40 ------- 1 0.0 2.0 0 0
r 0.101032 0 1 tcp 40 ------- 1 0.0 2.0 0 0
+ 0.101032 1 2 tcp 40 ------- 1 0.0 2.0 0 0
- 0.101032 1 2 tcp 40 ------- 1 0.0 2.0 0 0
r 0.102064 1 2 tcp 40 ------- 1 0.0 2.0 0 0
+ 0.102064 2 1 ack 40 ------- 1 2.0 0.0 0 1
- 0.102064 2 1 ack 40 ------- 1 2.0 0.0 0 1
r 0.103096 2 1 ack 40 ------- 1 2.0 0.0 0 1
+ 0.103096 1 0 ack 40 ------- 1 2.0 0.0 0 1
- 0.103096 1 0 ack 40 ------- 1 2.0 0.0 0 1
r 0.104128 1 0 ack 40 ------- 1 2.0 0.0 0 1
+ 0.104128 0 1 tcp 1040 ------- 1 0.0 2.0 1 2
- 0.104128 0 1 tcp 1040 ------- 1 0.0 2.0 1 2
+ 0.104128 0 1 tcp 1040 ------- 1 0.0 2.0 2 3
- 0.10496 0 1 tcp 1040 ------- 1 0.0 2.0 2 3
r 0.10596 0 1 tcp 1040 ------- 1 0.0 2.0 1 2
+ 0.10596 1 2 tcp 1040 ------- 1 0.0 2.0 1 2
- 0.10596 1 2 tcp 1040 ------- 1 0.0 2.0 1 2
r 0.106792 0 1 tcp 1040 ------- 1 0.0 2.0 2 3
+ 0.106792 1 2 tcp 1040 ------- 1 0.0 2.0 2 3
- 0.106792 1 2 tcp 1040 ------- 1 0.0 2.0 2 3
r 0.107792 1 2 tcp 1040 ------- 1 0.0 2.0 1 2
+ 0.107792 2 1 ack 40 ------- 1 2.0 0.0 1 4
- 0.107792 2 1 ack 40 ------- 1 2.0 0.0 1 4
r 0.108624 1 2 tcp 1040 ------- 1 0.0 2.0 2 3
+ 0.108624 2 1 ack 40 ------- 1 2.0 0.0 2 5
- 0.108624 2 1 ack 40 ------- 1 2.0 0.0 2 5
r 0.108824 2 1 ack 40 ------- 1 2.0 0.0 1 4
+ 0.108824 1 0 ack 40 ------- 1 2.0 0.0 1 4
- 0.108824 1 0 ack 40 ------- 1 2.0 0.0 1 4
r 0.109656 2 1 ack 40 ------- 1 2.0 0.0 2 5
+ 0.109656 1 0 ack 40 ------- 1 2.0 0.0 2 5
- 0.109656 1 0 ack 40 ------- 1 2.0 0.0 2 5
r 0.109856 1 0 ack 40 ------- 1 2.0 0.0 1 4
+ 0.109856 0 1 tcp 1040 ------- 1 0.0 2.0 3 6
- 0.109856 0 1 tcp 1040 ------- 1 0.0 2.0 3 6
+ 0.109856 0 1 tcp 1040 ------- 1 0.0 2.0 4 7
r 0.110688 1 0 ack 40 ------- 1 2.0 0.0 2 5
+ 0.110688 0 1 tcp 1040 ------- 1 0.0 2.0 5 8
+ 0.110688 0 1 tcp 1040 ------- 1 0.0 2.0 6 9
- 0.110688 0 1 tcp 1040 ------- 1 0.0 2.0 4 7
- 0.11152 0 1 tcp 1040 ------- 1 0.0 2.0 5 8
r 0.111688 0 1 tcp 1040 ------- 1 0.0 2.0 3 6
+ 0.111688 1 2 tcp 1040 ------- 1 0.0 2.0 3 6
- 0.111688 1 2 tcp 1040 ------- 1 0.0 2.0 3 6
- 0.112352 0 1 tcp 1040 ------- 1 0.0 2.0 6 9
r 0.11252 0 1 tcp 1040 ------- 1 0.0 2.0 4 7
+ 0.11252 1 2 tcp 1040 ------- 1 0.0 2.0 4 7
- 0.11252 1 2 tcp 1040 ------- 1 0.0 2.0 4 7
r 0.113352 0 1 tcp 1040 ------- 1 0.0 2.0 5 8
+ 0.113352 1 2 tcp 1040 ------- 1 0.0 2.0 5 8
- 0.113352 1 2 tcp 1040 ------- 1 0.0 2.0 5 8
r 0.11352 1 2 tcp 1040 ------- 1 0.0 2.0 3 6
+ 0.11352 2 1 ack 40 ------- 1 2.0 0.0 3 10
- 0.11352 2 1 ack 40 ------- 1 2.0 0.0 3 10
r 0.114184 0 1 tcp 1040 ------- 1 0.0 2.0 6 9
+ 0.114184 1 2 tcp 1040 ------- 1 0.0 2.0 6 9
- 0.114184 1 2 tcp 1040 ------- 1 0.0 2.0 6 9
r 0.114352 1 2 tcp 1040 ------- 1 0.0 2.0 4 7
+ 0.114352 2 1 ack 40 ------- 1 2.0 0.0 4 11
- 0.114352 2 1 ack 40 ------- 1 2.0 0.0 4 11
r 0.114552 2 1 ack 40 ------- 1 2.0 0.0 3 10
+ 0.114552 1 0 ack 40 ------- 1 2.0 0.0 3 10
- 0.114552 1 0 ack 40 ------- 1 2.0 0.0 3 10
r 0.115184 1 2 tcp 1040 ------- 1 0.0 2.0 5 8
+ 0.115184 2 1 ack 40 ------- 1 2.0 0.0 5 12
- 0.115184 2 1 ack 40 ------- 1 2.0 0.0 5 12
r 0.115384 2 1 ack 40 ------- 1 2.0 0.0 4 11
+ 0.115384 1 0 ack 40 ------- 1 2.0 0.0 4 11
- 0.115384 1 0 ack 40 ------- 1 2.0 0.0 4 11
r 0.115584 1 0 ack 40 ------- 1 2.0 0.0 3 10
+ 0.115584 0 1 tcp 1040 ------- 1 0.0 2.0 7 13
- 0.115584 0 1 tcp 1040 ------- 1 0.0 2.0 7 13
+ 0.115584 0 1 tcp 1040 ------- 1 0.0 2.0 8 14
r 0.116016 1 2 tcp 1040 ------- 1 0.0 2.0 6 9
+ 0.116016 2 1 ack 40 ------- 1 2.0 0.0 6 15
- 0.116016 2 1 ack 40 ------- 1 2.0 0.0 6 15
r 0.116216 2 1 ack 40 ------- 1 2.0 0.0 5 12
+ 0.116216 1 0 ack 40 ------- 1 2.0 0.0 5 12
- 0.116216 1 0 ack 40 ------- 1 2.0 0.0 5 12
r 0.116416 1 0 ack 40 ------- 1 2.0 0.0 4 11
+ 0.116416 0 1 tcp 1040 ------- 1 0.0 2.0 9 16
+ 0.116416 0 1 tcp 1040 ------- 1 0.0 2.0 10 17
- 0.116416 0 1 tcp 1040 ------- 1 0.0 2.0 8 14
r 0.117048 2 1 ack 40 ------- 1 2.0 0.0 6 15
+ 0.117048 1 0 ack 40 ------- 1 2.0 0.0 6 15
- 0.117048 1 0 ack 40 ------- 1 2.0 0.0 6 15
r 0.117248 1 0 ack 40 ------- 1 2.0 0.0 5 12
+ 0.117248 0 1 tcp 1040 ------- 1 0.0 2.0 11 18
+ 0.117248 0 1 tcp 1040 ------- 1 0.0 2.0 12 19
- 0.117248 0 1 tcp 1040 ------- 1 0.0 2.0 9 16
r 0.117416 0 1 tcp 1040 ------- 1 0.0 2.0 7 13
+ 0.117416 1 2 tcp 1040 ------- 1 0.0 2.0 7 13
- 0.117416 1 2 tcp 1040 ------- 1 0.0 2.0 7 13
r 0.11808 1 0 ack 40 ------- 1 2.0 0.0 6 15
+ 0.11808 0 1 tcp 1040 ------- 1 0.0 2.0 13 20
+ 0.11808 0 1 tcp 1040 ------- 1 0.0 2.0 14 21
- 0.11808 0 1 tcp 1040 ------- 1 0.0 2.0 10 17
r 0.118248 0 1 tcp 1040 ------- 1 0.0 2.0 8 14
+ 0.118248 1 2 tcp 1040 ------- 1 0.0 2.0 8 14
- 0.118248 1 2 tcp 1040 ------- 1 0.0 2.0 8 14
- 0.118912 0 1 tcp 1040 ------- 1 0.0 2.0 11 18
r 0.11908 0 1 tcp 1040 ------- 1 0.0 2.0 9 16
+ 0.11908 1 2 tcp 1040 ------- 1 0.0 2.0 9 16
- 0.11908 1 2 tcp 1040 ------- 1 0.0 2.0 9 16
r 0.119248 1 2 tcp 1040 ------- 1 0.0 2.0 7 13
+ 0.119248 2 1 ack 40 ------- 1 2.0 0.0 7 22
- 0.119248 2 1 ack 40 ------- 1 2.0 0.0 7 22
- 0.119744 0 1 tcp 1040 ------- 1 0.0 2.0 12 19
r 0.119912 0 1 tcp 1040 ------- 1 0.0 2.0 10 17
+ 0.119912 1 2 tcp 1040 ------- 1 0.0 2.0 10 17
- 0.119912 1 2 tcp 1040 ------- 1 0.0 2.0 10 17
r 0.12008 1 2 tcp 1040 ------- 1 0.0 2.0 8 14
+ 0.12008 2 1 ack 40 ------- 1 2.0 0.0 8 23
- 0.12008 2 1 ack 40 ------- 1 2.0 0.0 8 23
r 0.12028 2 1 ack 40 ------- 1 2.0 0.0 7 22
+ 0.12028 1 0 ack 40 ------- 1 2.0 0.0 7 22
- 0.12028 1 0 ack 40 ------- 1 2.0 0.0 7 22
- 0.120576 0 1 tcp 1040 ------- 1 0.0 2.0 13 20
r 0.120744 0 1 tcp 1040 ------- 1 0.0 2.0 11 18
+ 0.120744 1 2 tcp 1040 ------- 1 0.0 2.0 11 18
- 0.120744 1 2 tcp 1040 ------- 1 0.0 2.0 11 18
r 0.120912 1 2 tcp 1040 ------- 1 0.0 2.0 9 16
+ 0.120912 2 1 ack 40 ------- 1 2.0 0.0 9 24
- 0.120912 2 1 ack 40 ------- 1 2.0 0.0 9 24
r 0.121112 2 1 ack 40 ------- 1 2.0 0.0 8 23
+ 0.121112 1 0 ack 40 ------- 1 2.0 0.0 8 23
- 0.121112 1 0 ack 40 ------- 1 2.0 0.0 8 23
r 0.121312 1 0 ack 40 ------- 1 2.0 0.0 7 22
+ 0.121312 0 1 tcp 1040 ------- 1 0.0 2.0 15 25
+ 0.121312 0 1 tcp 1040 ------- 1 0.0 2.0 16 26
- 0.121408 0 1 tcp 1040 ------- 1 0.0 2.0 14 21
r 0.121576 0 1 tcp 1040 ------- 1 0.0 2.0 12 19
+ 0.121576 1 2 tcp 1040 ------- 1 0.0 2.0 12 19
- 0.121576 1 2 tcp 1040 ------- 1 0.0 2.0 12 19
r 0.121744 1 2 tcp 1040 ------- 1 0.0 2.0 10 17
+ 0.121744 2 1 ack 40 ------- 1 2.0 0.0 10 27
- 0.121744 2 1 ack 40 ------- 1 2.0 0.0 10 27
r 0.121944 2 1 ack 40 ------- 1 2.0 0.0 9 24
+ 0.121944 1 0 ack 40 ------- 1 2.0 0.0 9 24
- 0.121944 1 0 ack 40 ------- 1 2.0 0.0 9 24
r 0.122144 1 0 ack 40 ------- 1 2.0 0.0 8 23
+ 0.122144 0 1 tcp 1040 ------- 1 0.0 2.0 17 28
+ 0.122144 0 1 tcp 1040 ------- 1 0.0 2.0 18 29
- 0.12224 0 1 tcp 1040 ------- 1 0.0 2.0 15 25
r 0.122408 0 1 tcp 1040 ------- 1 0.0 2.0 13 20
+ 0.122408 1 2 tcp 1040 ------- 1 0.0 2.0 13 20
- 0.122408 1 2 tcp 1040 ------- 1 0.0 2.0 13 20
r 0.122576 1 2 tcp 1040 ------- 1 0.0 2.0 11 18
+ 0.122576 2 1 ack 40 ------- 1 2.0 0.0 11 30
- 0.122576 2 1 ack 40 ------- 1 2.0 0.0 11 30
r 0.122776 2 1 ack 40 ------- 1 2.0 0.0 10 27
+ 0.122776 1 0 ack 40 ------- 1 2.0 0.0 10 27
- 0.122776 1 0 ack 40 ------- 1 2.0 0.0 10 27
r 0.122976 1 0 ack 40 ------- 1 2.0 0.0 9 24
+ 0.122976 0 1 tcp 1040 ------- 1 0.0 2.0 19 31
+ 0.122976 0 1 tcp 1040 ------- 1 0.0 2.0 20 32
- 0.123072 0 1 tcp 1040 ------- 1 0.0 2.0 16 26
r 0.12324 0 1 tcp 1040 ------- 1 0.0 2.0 14 21
+ 0.12324 1 2 tcp 1040 ------- 1 0.0 2.0 14 21
- 0.12324 1 2 tcp 1040 ------- 1 0.0 2.0 14 21
r 0.123408 1 2 tcp 1040 ------- 1 0.0 2.0 12 19
+ 0.123408 2 1 ack 40 ------- 1 2.0 0.0 12 33
- 0.123408 2 1 ack 40 ------- 1 2.0 0.0 12 33
r 0.123608 2 1 ack 40 ------- 1 2.0 0.0 11 30
+ 0.123608 1 0 ack 40 ------- 1 2.0 0.0 11 30
- 0.123608 1 0 ack 40 ------- 1 2.0 0.0 11 30
r 0.123808 1 0 ack 40 ------- 1 2.0 0.0 10 27
+ 0.123808 0 1 tcp 1040 ------- 1 0.0 2.0 21 34
+ 0.123808 0 1 tcp 1040 ------- 1 0.0 2.0 22 35
- 0.123904 0 1 tcp 1040 ------- 1 0.0 2.0 17 28
r 0.124072 0 1 tcp 1040 ------- 1 0.0 2.0 15 25
+ 0.124072 1 2 tcp 1040 ------- 1 0.0 2.0 15 25
- 0.124072 1 2 tcp 1040 ------- 1 0.0 2.0 15 25
r 0.12424 1 2 tcp 1040 ------- 1 0.0 2.0 13 20
+ 0.12424 2 1 ack 40 ------- 1 2.0 0.0 13 36
- 0.12424 2 1 ack 40 ------- 1 2.0 0.0 13 36
r 0.12444 2 1 ack 40 ------- 1 2.0 0.0 12 33
+ 0.12444 1 0 ack 40 ------- 1 2.0 0.0 12 33
- 0.12444 1 0 ack 40 ------- 1 2.0 0.0 12 33
r 0.12464 1 0 ack 40 ------- 1 2.0 0.0 11 30
+ 0.12464 0 1 tcp 1040 ------- 1 0.0 2.0 23 37
+ 0.12464 0 1 tcp 1040 ------- 1 0.0 2.0 24 38
- 0.124736 0 1 tcp 1040 ------- 1 0.0 2.0 18 29
r 0.124904 0 1 tcp 1040 ------- 1 0.0 2.0 16 26
+ 0.124904 1 2 tcp 1040 ------- 1 0.0 2.0 16 26
- 0.124904 1 2 tcp 1040 ------- 1 0.0 2.0 16 26
r 0.125072 1 2 tcp 1040 ------- 1 0.0 2.0 14 21
+ 0.125072 2 1 ack 40 ------- 1 2.0 0.0 14 39
- 0.125072 2 1 ack 40 ------- 1 2.0 0.0 14 39
r 0.125272 2 1 ack 40 ------- 1 2.0 0.0 13 36
+ 0.125272 1 0 ack 40 ------- 1 2.0 0.0 13 36
- 0.125272 1 0 ack 40 ------- 1 2.0 0.0 13 36
r 0.125472 1 0 ack 40 ------- 1 2.0 0.0 12 33
+ 0.125472 0 1 tcp 1040 ------- 1 0.0 2.0 25 40
+ 0.125472 0 1 tcp 1040 ------- 1 0.0 2.0 26 41
- 0.125568 0 1 tcp 1040 ------- 1 0.0 2.0 19 31
r 0.125736 0 1 tcp 1040 ------- 1 0.0 2.0 17 28
+ 0.125736 1 2 tcp 1040 ------- 1 0.0 2.0 17 28
- 0.125736 1 2 tcp 1040 ------- 1 0.0 2.0 17 28
r 0.125904 1 2 tcp 1040 ------- 1 0.0 2.0 15 25
+ 0.125904 2 1 ack 40 ------- 1 2.0 0.0 15 42
- 0.125904 2 1 ack 40 ------- 1 2.0 0.0 15 42
r 0.126104 2 1 ack 40 ------- 1 2.0 0.0 14 39
+ 0.126104 1 0 ack 40 ------- 1 2.0 0.0 14 39
- 0.126104 1 0 ack 40 ------- 1 2.0 0.0 14 39
r 0.126304 1 0 ack 40 ------- 1 2.0 0.0 13 36
+ 0.126304 0 1 tcp 1040 ------- 1 0.0 2.0 27 43
+ 0.126304 0 1 tcp 1040 ------- 1 0.0 2.0 28 44
- 0.1264 0 1 tcp 1040 ------- 1 0.0 2.0 20 32
r 0.126568 0 1 tcp 1040 ------- 1 0.0 2.0 18 29
+ 0.126568 1 2 tcp 1040 ------- 1 0.0 2.0 18 29
- 0.126568 1 2 tcp 1040 ------- 1 0.0 2.0 18 29
r 0.126736 1 2 tcp 1040 ------- 1 0.0 2.0 16 26
+ 0.126736 2 1 ack 40 ------- 1 2.0 0.0 16 45
- 0.126736 2 1 ack 40 ------- 1 2.0 0.0 16 45
r 0.126936 2 1 ack 40 ------- 1 2.0 0.0 15 42
+ 0.126936 1 0 ack 40 ------- 1 2.0 0.0 15 42
- 0.126936 1 0 ack 40 ------- 1 2.0 0.0 15 42
r 0.127136 1 0 ack 40 ------- 1 2.0 0.0 14 39
+ 0.127136 0 1 tcp 1040 ------- 1 0.0 2.0 29 46
+ 0.127136 0 1 tcp 1040 ------- 1 0.0 2.0 30 47
d 0.127136 0 1 tcp 1040 ------- 1 0.0 2.0 30 47
- 0.127232 0 1 tcp 1040 ------- 1 0.0 2.0 21 34
r 0.1274 0 1 tcp 1040 ------- 1 0.0 2.0 19 31
+ 0.1274 1 2 tcp 1040 ------- 1 0.0 2.0 19 31
- 0.1274 1 2 tcp 1040 ------- 1 0.0 2.0 19 31
r 0.127568 1 2 tcp 1040 ------- 1 0.0 2.0 17 28
+ 0.127568 2 1 ack 40 ------- 1 2.0 0.0 17 48
- 0.127568 2 1 ack 40 ------- 1 2.0 0.0 17 48
r 0.127768 2 1 ack 40 ------- 1 2.0 0.0 16 45
+ 0.127768 1 0 ack 40 ------- 1 2.0 0.0 16 45
- 0.127768 1 0 ack 40 ------- 1 2.0 0.0 16 45
r 0.127968 1 0 ack 40 ------- 1 2.0 0.0 15 42
+ 0.127968 0 1 tcp 1040 ------- 1 0.0 2.0 31 49
+ 0.127968 0 1 tcp 1040 ------- 1 0.0 2.0 32 50
d 0.127968 0 1 tcp 1040 ------- 1 0.0 2.0 32 50
- 0.128064 0 1 tcp 1040 ------- 1 0.0 2.0 22 35
r 0.128232 0 1 tcp 1040 ------- 1 0.0 2.0 20 32
+ 0.128232 1 2 tcp 1040 ------- 1 0.0 2.0 20 32
- 0.128232 1 2 tcp 1040 ------- 1 0.0 2.0 20 32
r 0.1284 1 2 tcp 1040 ------- 1 0.0 2.0 18 29
+ 0.1284 2 1 ack 40 ------- 1 2.0 0.0 18 51
- 0.1284 2 1 ack 40 ------- 1 2.0 0.0 18 51
r 0.1286 2 1 ack 40 ------- 1 2.0 0.0 17 48
+ 0.1286 1 0 ack 40 ------- 1 2.0 0.0 17 48
- 0.1286 1 0 ack 40 ------- 1 2.0 0.0 17 48
r 0.1288 1 0 ack 40 ------- 1 2.0 0.0 16 45
+ 0.1288 0 1 tcp 1040 ------- 1 0.0 2.0 33 52
+ 0.1288 0 1 tcp 1040 ------- 1 0.0 2.0 34 53
d 0.1288 0 1 tcp 1040 ------- 1 0.0 2.0 34 53
- 0.128896 0 1 tcp 1040 ------- 1 0.0 2.0 23 37
r 0.129064 0 1 tcp 1040 ------- 1 0.0 2.0 21 34
+ 0.129064 1 2 tcp 1040 ------- 1 0.0 2.0 21 34
- 0.129064 1 2 tcp 1040 ------- 1 0.0 2.0 21 34
r 0.129232 1 2 tcp 1040 ------- 1 0.0 2.0 19 31
+ 0.129232 2 1 ack 40 ------- 1 2.0 0.0 19 54
- 0.129232 2 1 ack 40 ------- 1 2.0 0.0 19 54
r 0.129432 2 1 ack 40 ------- 1 2.0 0.0 18 51
+ 0.129432 1 0 ack 40 ------- 1 2.0 0.0 18 51
- 0.129432 1 0 ack 40 ------- 1 2.0 0.0 18 51
r 0.129632 1 0 ack 40 ------- 1 2.0 0.0 17 48
+ 0.129632 0 1 tcp 1040 ------- 1 0.0 2.0 35 55
+ 0.129632 0 1 tcp 1040 ------- 1 0.0 2.0 36 56
d 0.129632 0 1 tcp 1040 ------- 1 0.0 2.0 36 56
- 0.129728 0 1 tcp 1040 ------- 1 0.0 2.0 24 38
r 0.129896 0 1 tcp 1040 ------- 1 0.0 2.0 22 35
+ 0.129896 1 2 tcp 1040 ------- 1 0.0 2.0 22 35
- 0.129896 1 2 tcp 1040 ------- 1 0.0 2.0 22 35
r 0.130064 1 2 tcp 1040 ------- 1 0.0 2.0 20 32
+ 0.130064 2 1 ack 40 ------- 1 2.0 0.0 20 57
- 0.130064 2 1 ack 40 ------- 1 2.0 0.0 20 57
r 0.130264 2 1 ack 40 ------- 1 2.0 0.0 19 54
+ 0.130264 1 0 ack 40 ------- 1 2.0 0.0 19 54
- 0.130264 1 0 ack 40 ------- 1 2.0 0.0 19 54
r 0.130464 1 0 ack 40 ------- 1 2.0 0.0 18 51
+ 0.130464 0 1 tcp 1040 ------- 1 0.0 2.0 37 58
+ 0.130464 0 1 tcp 1040 ------- 1 0.0 2.0 38 59
d 0.130464 0 1 tcp 1040 ------- 1 0.0 2.0 38 59
- 0.13056 0 1 tcp 1040 ------- 1 0.0 2.0 25 40
r 0.130728 0 1 tcp 1040 ------- 1 0.0 2.0 23 37
+ 0.130728 1 2 tcp 1040 ------- 1 0.0 2.0 23 37
- 0.130728 1 2 tcp 1040 ------- 1 0.0 2.0 23 37
r 0.130896 1 2 tcp 1040 ------- 1 0.0 2.0 21 34
+ 0.130896 2 1 ack 40 ------- 1 2.0 0.0 21 60
- 0.130896 2 1 ack 40 ------- 1 2.0 0.0 21 60
r 0.131096 2 1 ack 40 ------- 1 2.0 0.0 20 57
+ 0.131096 1 0 ack 40 ------- 1 2.0 0.0 20 57
- 0.131096 1 0 ack 40 ------- 1 2.0 0.0 20 57
r 0.131296 1 0 ack 40 ------- 1 2.0 0.0 19 54
+ 0.131296 0 1 tcp 1040 ------- 1 0.0 2.0 39 61
- 0.131392 0 1 tcp 1040 ------- 1 0.0 2.0 26 41
r 0.13156 0 1 tcp 1040 ------- 1 0.0 2.0 24 38
+ 0.13156 1 2 tcp 1040 ------- 1 0.0 2.0 24 38
- 0.13156 1 2 tcp 1040 ------- 1 0.0 2.0 24 38
r 0.131728 1 2 tcp 1040 ------- 1 0.0 2.0 22 35
+ 0.131728 2 1 ack 40 ------- 1 2.0 0.0 22 62
- 0.131728 2 1 ack 40 ------- 1 2.0 0.0 22 62
r 0.131928 2 1 ack 40 ------- 1 2.0 0.0 21 60
+ 0.131928 1 0 ack 40 ------- 1 2.0 0.0 21 60
- 0.131928 1 0 ack 40 ------- 1 2.0 0.0 21 60
r 0.132128 1 0 ack 40 ------- 1 2.0 0.0 20 57
+ 0.132128 0 1 tcp 1040 ------- 1 0.0 2.0 40 63
- 0.132224 0 1 tcp 1040 ------- 1 0.0 2.0 27 43
r 0.132392 0 1 tcp 1040 ------- 1 0.0 2.0 25 40
+ 0.132392 1 2 tcp 1040 ------- 1 0.0 2.0 25 40
- 0.132392 1 2 tcp 1040 ------- 1 0.0 2.0 25 40
r 0.13256 1 2 tcp 1040 ------- 1 0.0 2.0 23 37
+ 0.13256 2 1 ack 40 ------- 1 2.0 0.0 23 64
- 0.13256 2 1 ack 40 ------- 1 2.0 0.0 23 64
r 0.13276 2 1 ack 40 ------- 1 2.0 0.0 22 62
+ 0.13276 1 0 ack 40 ------- 1 2.0 0.0 22 62
- 0.13276 1 0 ack 40 ------- 1 2.0 0.0 22 62
r 0.13296 1 0 ack 40 ------- 1 2.0 0.0 21 60
+ 0.13296 0 1 tcp 1040 ------- 1 0.0 2.0 41 65
- 0.133056 0 1 tcp 1040 ------- 1 0.0 2.0 28 44
r 0.133224 0 1 tcp 1040 ------- 1 0.0 2.0 26 41
+ 0.133224 1 2 tcp 1040 ------- 1 0.0 2.0 26 41
- 0.133224 1 2 tcp 1040 ------- 1 0.0 2.0 26 41
r 0.133392 1 2 tcp 1040 ------- 1 0.0 2.0 24 38
+ 0.133392 2 1 ack 40 ------- 1 2.0 0.0 24 66
- 0.133392 2 1 ack 40 ------- 1 2.0 0.0 24 66
r 0.133592 2 1 ack 40 ------- 1 2.0 0.0 23 64
+ 0.133592 1 0 ack 40 ------- 1 2.0 0.0 23 64
- 0.133592 1 0 ack 40 ------- 1 2.0 0.0 23 64
r 0.133792 1 0 ack 40 ------- 1 2.0 0.0 22 62
+ 0.133792 0 1 tcp 1040 ------- 1 0.0 2.0 42 67
- 0.133888 0 1 tcp 1040 ------- 1 0.0 2.0 29 46
r 0.134056 0 1 tcp 1040 ------- 1 0.0 2.0 27 43
+ 0.134056 1 2 tcp 1040 ------- 1 0.0 2.0 27 43
- 0.134056 1 2 tcp 1040 ------- 1 0.0 2.0 27 43
r 0.134224 1 2 tcp 1040 ------- 1 0.0 2.0 25 40
+ 0.134224 2 1 ack 40 ------- 1 2.0 0.0 25 68
- 0.134224 2 1 ack 40 ------- 1 2.0 0.0 25 68
r 0.134424 2 1 ack 40 ------- 1 2.0 0.0 24 66
+ 0.134424 1 0 ack 40 ------- 1 2.0 0.0 24 66
- 0.134424 1 0 ack 40 ------- 1 2.0 0.0 24 66
r 0.134624 1 0 ack 40 ------- 1 2.0 0.0 23 64
+ 0.134624 0 1 tcp 1040 ------- 1 0.0 2.0 43 69
- 0.13472 0 1 tcp 1040 ------- 1 0.0 2.0 31 49
r 0.134888 0 1 tcp 1040 ------- 1 0.0 2.0 28 44
+ 0.134888 1 2 tcp 1040 ------- 1 0.0 2.0 28 44
- 0.134888 1 2 tcp 1040 ------- 1 0.0 2.0 28 44
r 0.135056 1 2 tcp 1040 ------- 1 0.0 2.0 26 41
+ 0.135056 2 1 ack 40 ------- 1 2.0 0.0 26 70
- 0.135056 2 1 ack 40 ------- 1 2.0 0.0 26 70
r 0.135256 2 1 ack 40 ------- 1 2.0 0.0 25 68
+ 0.135256 1 0 ack 40 ------- 1 2.0 0.0 25 68
- 0.135256 1 0 ack 40 ------- 1 2.0 0.0 25 68
r 0.135456 1 0 ack 40 ------- 1 2.0 0.0 24 66
+ 0.135456 0 1 tcp 1040 ------- 1 0.0 2.0 44 71
- 0.135552 0 1 tcp 1040 ------- 1 0.0 2.0 33 52
r 0.13572 0 1 tcp 1040 ------- 1 0.0 2.0 29 46
+ 0.13572 1 2 tcp 1040 ------- 1 0.0 2.0 29 46
- 0.13572 1 2 tcp 1040 ------- 1 0.0 2.0 29 46
r 0.135888 1 2 tcp 1040 ------- 1 0.0 2.0 27 43
+ 0.135888 2 1 ack 40 ------- 1 2.0 0.0 27 72
- 0.135888 2 1 ack 40 ------- 1 2.0 0.0 27 72
r 0.136088 2 1 ack 40 ------- 1 2.0 0.0 26 70
+ 0.136088 1 0 ack 40 ------- 1 2.0 0.0 26 70
- 0.136088 1 0 ack 40 ------- 1 2.0 0.0 26 70
r 0.136288 1 0 ack 40 ------- 1 2.0 0.0 25 68
+ 0.136288 0 1 tcp 1040 ------- 1 0.0 2.0 45 73
- 0.136384 0 1 tcp 1040 ------- 1 0.0 2.0 35 55
r 0.136552 0 1 tcp 1040 ------- 1 0.0 2.0 31 49
+ 0.136552 1 2 tcp 1040 ------- 1 0.0 2.0 31 49
- 0.136552 1 2 tcp 1040 ------- 1 0.0 2.0 31 49
r 0.13672 1 2 tcp 1040 ------- 1 0.0 2.0 28 44
+ 0.13672 2 1 ack 40 ------- 1 2.0 0.0 28 74
- 0.13672 2 1 ack 40 ------- 1 2.0 0.0 28 74
r 0.13692 2 1 ack 40 ------- 1 2.0 0.0 27 72
+ 0.13692 1 0 ack 40 ------- 1 2.0 0.0 27 72
- 0.13692 1 0 ack 40 ------- 1 2.0 0.0 27 72
r 0.13712 1 0 ack 40 ------- 1 2.0 0.0 26 70
+ 0.13712 0 1 tcp 1040 ------- 1 0.0 2.0 46 75
- 0.137216 0 1 tcp 1040 ------- 1 0.0 2.0 37 58
r 0.137384 0 1 tcp 1040 ------- 1 0.0 2.0 33 52
+ 0.137384 1 2 tcp 1040 ------- 1 0.0 2.0 33 52
- 0.137384 1 2 tcp 1040 ------- 1 0.0 2.0 33 52
r 0.137552 1 2 tcp 1040 ------- 1 0.0 2.0 29 46
+ 0.137552 2 1 ack 40 ------- 1 2.0 0.0 29 76
- 0.137552 2 1 ack 40 ------- 1 2.0 0.0 29 76
r 0.137752 2 1 ack 40 ------- 1 2.0 0.0 28 74
+ 0.137752 1 0 ack 40 ------- 1 2.0 0.0 28 74
- 0.137752 1 0 ack 40 ------- 1 2.0 0.0 28 74
r 0.137952 1 0 ack 40 ------- 1 2.0 0.0 27 72
+ 0.137952 0 1 tcp 1040 ------- 1 0.0 2.0 47 77
- 0.138048 0 1 tcp 1040 ------- 1 0.0 2.0 39 61
r 0.138216 0 1 tcp 1040 ------- 1 0.0 2.0 35 55
+ 0.138216 1 2 tcp 1040 ------- 1 0.0 2.0 35 55
- 0.138216 1 2 tcp 1040 ------- 1 0.0 2.0 35 55
r 0.138384 1 2 tcp 1040 ------- 1 0.0 2.0 31 49
+ 0.138384 2 1 ack 40 ------- 1 2.0 0.0 29 78
- 0.138384 2 1 ack 40 ------- 1 2.0 0.0 29 78
r 0.138584 2 1 ack 40 ------- 1 2.0 0.0 29 76
+ 0.138584 1 0 ack 40 ------- 1 2.0 0.0 29 76
- 0.138584 1 0 ack 40 ------- 1 2.0 0.0 29 76
r 0.138784 1 0 ack 40 ------- 1 2.0 0.0 28 74
+ 0.138784 0 1 tcp 1040 ------- 1 0.0 2.0 48 79
- 0.13888 0 1 tcp 1040 ------- 1 0.0 2.0 40 63
r 0.139048 0 1 tcp 1040 ------- 1 0.0 2.0 37 58
+ 0.139048 1 2 tcp 1040 ------- 1 0.0 2.0 37 58
- 0.139048 1 2 tcp 1040 ------- 1 0.0 2.0 37 58
r 0.139216 1 2 tcp 1040 ------- 1 0.0 2.0 33 52
+ 0.139216 2 1 ack 40 ------- 1 2.0 0.0 29 80
- 0.139216 2 1 ack 40 ------- 1 2.0 0.0 29 80
r 0.139416 2 1 ack 40 ------- 1 2.0 0.0 29 78
+ 0.139416 1 0 ack 40 ------- 1 2.0 0.0 29 78
- 0.139416 1 0 ack 40 ------- 1 2.0 0.0 29 78
r 0.139616 1 0 ack 40 ------- 1 2.0 0.0 29 76
+ 0.139616 0 1 tcp 1040 ------- 1 0.0 2.0 49 81
- 0.139712 0 1 tcp 1040 ------- 1 0.0 2.0 41 65
r 0.13988 0 1 tcp 1040 ------- 1 0.0 2.0 39 61
+ 0.13988 1 2 tcp 1040 ------- 1 0.0 2.0 39 61
- 0.13988 1 2 tcp 1040 ------- 1 0.0 2.0 39 61
r 0.140048 1 2 tcp 1040 ------- 1 0.0 2.0 35 55
+ 0.140048 2 1 ack 40 ------- 1 2.0 0.0 29 82
- 0.140048 2 1 ack 40 ------- 1 2.0 0.0 29 82
r 0.140248 2 1 ack 40 ------- 1 2.0 0.0 29 80
+ 0.140248 1 0 ack 40 ------- 1 2.0 0.0 29 80
- 0.140248 1 0 ack 40 ------- 1 2.0 0.0 29 80
r 0.140448 1 0 ack 40 ------- 1 2.0 0.0 29 78
- 0.140544 0 1 tcp 1040 ------- 1 0.0 2.0 42 67
r 0.140712 0 1 tcp 1040 ------- 1 0.0 2.0 40 63
+ 0.140712 1 2 tcp 1040 ------- 1 0.0 2.0 40 63
- 0.140712 1 2 tcp 1040 ------- 1 0.0 2.0 40 63
r 0.14088 1 2 tcp 1040 ------- 1 0.0 2.0 37 58
+ 0.14088 2 1 ack 40 ------- 1 2.0 0.0 29 83
- 0.14088 2 1 ack 40 ------- 1 2.0 0.0 29 83
r 0.14108 2 1 ack 40 ------- 1 2.0 0.0 29 82
+ 0.14108 1 0 ack 40 ------- 1 2.0 0.0 29 82
- 0.14108 1 0 ack 40 ------- 1 2.0 0.0 29 82
r 0.14128 1 0 ack 40 ------- 1 2.0 0.0 29 80
- 0.141376 0 1 tcp 1040 ------- 1 0.0 2.0 43 69
r 0.141544 0 1 tcp 1040 ------- 1 0.0 2.0 41 65
+ 0.141544 1 2 tcp 1040 ------- 1 0.0 2.0 41 65
- 0.141544 1 2 tcp 1040 ------- 1 0.0 2.0 41 65
r 0.141712 1 2 tcp 1040 ------- 1 0.0 2.0 39 61
+ 0.141712 2 1 ack 40 ------- 1 2.0 0.0 29 84
- 0.141712 2 1 ack 40 ------- 1 2.0 0.0 29 84
r 0.141912 2 1 ack 40 ------- 1 2.0 0.0 29 83
+ 0.141912 1 0 ack 40 ------- 1 2.0 0.0 29 83
- 0.141912 1 0 ack 40 ------- 1 2.0 0.0 29 83
r 0.142112 1 0 ack 40 ------- 1 2.0 0.0 29 82
+ 0.142112 0 1 tcp 1040 ---A--- 1 0.0 2.0 30 85
- 0.142208 0 1 tcp 1040 ------- 1 0.0 2.0 44 71
r 0.142376 0 1 tcp 1040 ------- 1 0.0 2.0 42 67
+ 0.142376 1 2 tcp 1040 ------- 1 0.0 2.0 42 67
- 0.142376 1 2 tcp 1040 ------- 1 0.0 2.0 42 67
r 0.142544 1 2 tcp 1040 ------- 1 0.0 2.0 40 63
+ 0.142544 2 1 ack 40 ------- 1 2.0 0.0 29 86
- 0.142544 2 1 ack 40 ------- 1 2.0 0.0 29 86
r 0.142744 2 1 ack 40 ------- 1 2.0 0.0 29 84
+ 0.142744 1 0 ack 40 ------- 1 2.0 0.0 29 84
- 0.142744 1 0 ack 40 ------- 1 2.0 0.0 29 84
r 0.142944 1 0 ack 40 ------- 1 2.0 0.0 29 83
- 0.14304 0 1 tcp 1040 ------- 1 0.0 2.0 45 73
r 0.143208 0 1 tcp 1040 ------- 1 0.0 2.0 43 69
+ 0.143208 1 2 tcp 1040 ------- 1 0.0 2.0 43 69
- 0.143208 1 2 tcp 1040 ------- 1 0.0 2.0 43 69
r 0.143376 1 2 tcp 1040 ------- 1 0.0 2.0 41 65
+ 0.143376 2 1 ack 40 ------- 1 2.0 0.0 29 87
- 0.143376 2 1 ack 40 ------- 1 2.0 0.0 29 87
r 0.143576 2 1 ack 40 ------- 1 2.0 0.0 29 86
+ 0.143576 1 0 ack 40 ------- 1 2.0 0.0 29 86
- 0.143576 1 0 ack 40 ------- 1 2.0 0.0 29 86
r 0.143776 1 0 ack 40 ------- 1 2.0 0.0 29 84
- 0.143872 0 1 tcp 1040 ------- 1 0.0 2.0 46 75
r 0.14404 0 1 tcp 1040 ------- 1 0.0 2.0 44 71
+ 0.14404 1 2 tcp 1040 ------- 1 0.0 2.0 44 71
- 0.14404 1 2 tcp 1040 ------- 1 0.0 2.0 44 71
r 0.144208 1 2 tcp 1040 ------- 1 0.0 2.0 42 67
+ 0.144208 2 1 ack 40 ------- 1 2.0 0.0 29 88
- 0.144208 2 1 ack 40 ------- 1 2.0 0.0 29 88
r 0.144408 2 1 ack 40 ------- 1 2.0 0.0 29 87
+ 0.144408 1 0 ack 40 ------- 1 2.0 0.0 29 87
- 0.144408 1 0 ack 40 ------- 1 2.0 0.0 29 87
r 0.144608 1 0 ack 40 ------- 1 2.0 0.0 29 86
- 0.144704 0 1 tcp 1040 ------- 1 0.0 2.0 47 77
r 0.144872 0 1 tcp 1040 ------- 1 0.0 2.0 45 73
+ 0.144872 1 2 tcp 1040 ------- 1 0.0 2.0 45 73
- 0.144872 1 2 tcp 1040 ------- 1 0.0 2.0 45 73
r 0.14504 1 2 tcp 1040 ------- 1 0.0 2.0 43 69
+ 0.14504 2 1 ack 40 ------- 1 2.0 0.0 29 89
- 0.14504 2 1 ack 40 ------- 1 2.0 0.0 29 89
r 0.14524 2 1 ack 40 ------- 1 2.0 0.0 29 88
+ 0.14524 1 0 ack 40 ------- 1 2.0 0.0 29 88
- 0.14524 1 0 ack 40 ------- 1 2.0 0.0 29 88
r 0.14544 1 0 ack 40 ------- 1 2.0 0.0 29 87
- 0.145536 0 1 tcp 1040 ------- 1 0.0 2.0 48 79
r 0.145704 0 1 tcp 1040 ------- 1 0.0 2.0 46 75
+ 0.145704 1 2 tcp 1040 ------- 1 0.0 2.0 46 75
- 0.145704 1 2 tcp 1040 ------- 1 0.0 2.0 46 75
r 0.145872 1 2 tcp 1040 ------- 1 0.0 2.0 44 71
+ 0.145872 2 1 ack 40 ------- 1 2.0 0.0 29 90
- 0.145872 2 1 ack 40 ------- 1 2.0 0.0 29 90
r 0.146072 2 1 ack 40 ------- 1 2.0 0.0 29 89
+ 0.146072 1 0 ack 40 ------- 1 2.0 0.0 29 89
- 0.146072 1 0 ack 40 ------- 1 2.0 0.0 29 89
r 0.146272 1 0 ack 40 ------- 1 2.0 0.0 29 88
- 0.146368 0 1 tcp 1040 ------- 1 0.0 2.0 49 81
r 0.146536 0 1 tcp 1040 ------- 1 0.0 2.0 47 77
+ 0.146536 1 2 tcp 1040 ------- 1 0.0 2.0 47 77
- 0.146536 1 2 tcp 1040 ------- 1 0.0 2.0 47 77
r 0.146704 1 2 tcp 1040 ------- 1 0.0 2.0 45 73
+ 0.146704 2 1 ack 40 ------- 1 2.0 0.0 29 91
- 0.146704 2 1 ack 40 ------- 1 2.0 0.0 29 91
r 0.146904 2 1 ack 40 ------- 1 2.0 0.0 29 90
+ 0.146904 1 0 ack 40 ------- 1 2.0 0.0 29 90
- 0.146904 1 0 ack 40 ------- 1 2.0 0.0 29 90
r 0.147104 1 0 ack 40 ------- 1 2.0 0.0 29 89
- 0.1472 0 1 tcp 1040 ---A--- 1 0.0 2.0 30 85
r 0.147368 0 1 tcp 1040 ------- 1 0.0 2.0 48 79
+ 0.147368 1 2 tcp 1040 ------- 1 0.0 2.0 48 79
- 0.147368 1 2 tcp 1040 ------- 1 0.0 2.0 48 79
r 0.147536 1 2 tcp 1040 ------- 1 0.0 2.0 46 75
+ 0.147536 2 1 ack 40 ------- 1 2.0 0.0 29 92
- 0.147536 2 1 ack 40 ------- 1 2.0 0.0 29 92
r 0.147736 2 1 ack 40 ------- 1 2.0 0.0 29 91
+ 0.147736 1 0 ack 40 ------- 1 2.0 0.0 29 91
- 0.147736 1 0 ack 40 ------- 1 2.0 0.0 29 91
r 0.147936 1 0 ack 40 ------- 1 2.0 0.0 29 90
r 0.1482 0 1 tcp 1040 ------- 1 0.0 2.0 49 81
+ 0.1482 1 2 tcp 1040 ------- 1 0.0 2.0 49 81
- 0.1482 1 2 tcp 1040 ------- 1 0.0 2.0 49 81
r 0.148368 1 2 tcp 1040 ------- 1 0.0 2.0 47 77
+ 0.148368 2 1 ack 40 ------- 1 2.0 0.0 29 93
- 0.148368 2 1 ack 40 ------- 1 2.0 0.0 29 93
r 0.148568 2 1 ack 40 ------- 1 2.0 0.0 29 92
+ 0.148568 1 0 ack 40 ------- 1 2.0 0.0 29 92
- 0.148568 1 0 ack 40 ------- 1 2.0 0.0 29 92
r 0.148768 1 0 ack 40 ------- 1 2.0 0.0 29 91
r 0.149032 0 1 tcp 1040 ---A--- 1 0.0 2.0 30 85
+ 0.149032 1 2 tcp 1040 ---A--- 1 0.0 2.0 30 85
- 0.149032 1 2 tcp 1040 ---A--- 1 0.0 2.0 30 85
r 0.1492 1 2 tcp 1040 ------- 1 0.0 2.0 48 79
+ 0.1492 2 1 ack 40 ------- 1 2.0 0.0 29 94
- 0.1492 2 1 ack 40 ------- 1 2.0 0.0 29 94
r 0.1494 2 1 ack 40 ------- 1 2.0 0.0 29 93
+ 0.1494 1 0 ack 40 ------- 1 2.0 0.0 29 93
- 0.1494 1 0 ack 40 ------- 1 2.0 0.0 29 93
r 0.1496 1 0 ack 40 ------- 1 2.0 0.0 29 92
r 0.150032 1 2 tcp 1040 ------- 1 0.0 2.0 49 81
+ 0.150032 2 1 ack 40 ------- 1 2.0 0.0 29 95
- 0.150032 2 1 ack 40 ------- 1 2.0 0.0 29 95
r 0.150232 2 1 ack 40 ------- 1 2.0 0.0 29 94
+ 0.150232 1 0 ack 40 ------- 1 2.0 0.0 29 94
- 0.150232 1 0 ack 40 ------- 1 2.0 0.0 29 94
r 0.150432 1 0 ack 40 ------- 1 2.0 0.0 29 93
r 0.150864 1 2 tcp 1040 ---A--- 1 0.0 2.0 30 85
+ 0.150864 2 1 ack 40 ------- 1 2.0 0.0 31 96
- 0.150864 2 1 ack 40 ------- 1 2.0 0.0 31 96
r 0.151064 2 1 ack 40 ------- 1 2.0 0.0 29 95
+ 0.151064 1 0 ack 40 ------- 1 2.0 0.0 29 95
- 0.151064 1 0 ack 40 ------- 1 2.0 0.0 29 95
r 0.151264 1 0 ack 40 ------- 1 2.0 0.0 29 94
r 0.151896 2 1 ack 40 ------- 1 2.0 0.0 31 96
+ 0.151896 1 0 ack 40 ------- 1 2.0 0.0 31 96
- 0.151896 1 0 ack 40 ------- 1 2.0 0.0 31 96
r 0.152096 1 0 ack 40 ------- 1 2.0 0.0 29 95
r 0.152928 1 0 ack 40 ------- 1 2.0 0.0 31 96
+ 0.152928 0 1 tcp 1040 ------- 1 0.0 2.0 32 97
- 0.152928 0 1 tcp 1040 ------- 1 0.0 2.0 32 97
+ 0.152928 0 1 tcp 1040 ------- 1 0.0 2.0 33 98
- 0.15376 0 1 tcp 1040 ------- 1 0.0 2.0 33 98
r 0.15476 0 1 tcp 1040 ------- 1 0.0 2.0 32 97
+ 0.15476 1 2 tcp 1040 ------- 1 0.0 2.0 32 97
- 0.15476 1 2 tcp 1040 ------- 1 0.0 2.0 32 97
r 0.155592 0 1 tcp 1040 ------- 1 0.0 2.0 33 98
+ 0.155592 1 2 tcp 1040 ------- 1 0.0 2.0 33 98
- 0.155592 1 2 tcp 1040 ------- 1 0.0 2.0 33 98
r 0.156592 1 2 tcp 1040 ------- 1 0.0 2.0 32 97
+ 0.156592 2 1 ack 40 ------- 1 2.0 0.0 33 99
- 0.156592 2 1 ack 40 ------- 1 2.0 0.0 33 99
r 0.157424 1 2 tcp 1040 ------- 1 0.0 2.0 33 98
+ 0.157424 2 1 ack 40 ------- 1 2.0 0.0 33 100
- 0.157424 2 1 ack 40 ------- 1 2.0 0.0 33 100
r 0.157624 2 1 ack 40 ------- 1 2.0 0.0 33 99
+ 0.157624 1 0 ack 40 ------- 1 2.0 0.0 33 99
- 0.157624 1 0 ack 40 ------- 1 2.0 0.0 33 99
r 0.158456 2 1 ack 40 ------- 1 2.0 0.0 33 100
+ 0.158456 1 0 ack 40 ------- 1 2.0 0.0 33 100
- 0.158456 1 0 ack 40 ------- 1 2.0 0.0 33 100
r 0.158656 1 0 ack 40 ------- 1 2.0 0.0 33 99
+ 0.158656 0 1 tcp 1040 ------- 1 0.0 2.0 34 101
- 0.158656 0 1 tcp 1040 ------- 1 0.0 2.0 34 101
+ 0.158656 0 1 tcp 1040 ------- 1 0.0 2.0 35 102
+ 0.158656 0 1 tcp 1040 ------- 1 0.0 2.0 36 103
r 0.159488 1 0 ack 40 ------- 1 2.0 0.0 33 100
+ 0.159488 0 1 tcp 1040 ------- 1 0.0 2.0 37 104
- 0.159488 0 1 tcp 1040 ------- 1 0.0 2.0 35 102
- 0.16032 0 1 tcp 1040 ------- 1 0.0 2.0 36 103
r 0.160488 0 1 tcp 1040 ------- 1 0.0 2.0 34 101
+ 0.160488 1 2 tcp 1040 ------- 1 0.0 2.0 34 101
- 0.160488 1 2 tcp 1040 ------- 1 0.0 2.0 34 101
- 0.161152 0 1 tcp 1040 ------- 1 0.0 2.0 37 104
r 0.16132 0 1 tcp 1040 ------- 1 0.0 2.0 35 102
+ 0.16132 1 2 tcp 1040 ------- 1 0.0 2.0 35 102
- 0.16132 1 2 tcp 1040 ------- 1 0.0 2.0 35 102
r 0.162152 0 1 tcp 1040 ------- 1 0.0 2.0 36 103
+ 0.162152 1 2 tcp 1040 ------- 1 0.0 2.0 36 103
- 0.162152 1 2 tcp 1040 ------- 1 0.0 2.0 36 103
r 0.16232 1 2 tcp 1040 ------- 1 0.0 2.0 34 101
+ 0.16232 2 1 ack 40 ------- 1 2.0 0.0 35 105
- 0.16232 2 1 ack 40 ------- 1 2.0 0.0 35 105
r 0.162984 0 1 tcp 1040 ------- 1 0.0 2.0 37 104
+ 0.162984 1 2 tcp 1040 ------- 1 0.0 2.0 37 104
- 0.162984 1 2 tcp 1040 ------- 1 0.0 2.0 37 104
r 0.163152 1 2 tcp 1040 ------- 1 0.0 2.0 35 102
+ 0.163152 2 1 ack 40 ------- 1 2.0 0.0 35 106
- 0.163152 2 1 ack 40 ------- 1 2.0 0.0 35 106
r 0.163352 2 1 ack 40 ------- 1 2.0 0.0 35 105
+ 0.163352 1 0 ack 40 ------- 1 2.0 0.0 35 105
- 0.163352 1 0 ack 40 ------- 1 2.0 0.0 35 105
r 0.163984 1 2 tcp 1040 ------- 1 0.0 2.0 36 103
+ 0.163984 2 1 ack 40 ------- 1 2.0 0.0 37 107
- 0.163984 2 1 ack 40 ------- 1 2.0 0.0 37 107
r 0.164184 2 1 ack 40 ------- 1 2.0 0.0 35 106
+ 0.164184 1 0 ack 40 ------- 1 2.0 0.0 35 106
- 0.164184 1 0 ack 40 ------- 1 2.0 0.0 35 106
r 0.164384 1 0 ack 40 ------- 1 2.0 0.0 35 105
+ 0.164384 0 1 tcp 1040 ------- 1 0.0 2.0 38 108
- 0.164384 0 1 tcp 1040 ------- 1 0.0 2.0 38 108
+ 0.164384 0 1 tcp 1040 ------- 1 0.0 2.0 39 109
r 0.164816 1 2 tcp 1040 ------- 1 0.0 2.0 37 104
+ 0.164816 2 1 ack 40 ------- 1 2.0 0.0 37 110
- 0.164816 2 1 ack 40 ------- 1 2.0 0.0 37 110
r 0.165016 2 1 ack 40 ------- 1 2.0 0.0 37 107
+ 0.165016 1 0 ack 40 ------- 1 2.0 0.0 37 107
- 0.165016 1 0 ack 40 ------- 1 2.0 0.0 37 107
r 0.165216 1 0 ack 40 ------- 1 2.0 0.0 35 106
+ 0.165216 0 1 tcp 1040 ------- 1 0.0 2.0 40 111
- 0.165216 0 1 tcp 1040 ------- 1 0.0 2.0 39 109
r 0.165848 2 1 ack 40 ------- 1 2.0 0.0 37 110
+ 0.165848 1 0 ack 40 ------- 1 2.0 0.0 37 110
- 0.165848 1 0 ack 40 ------- 1 2.0 0.0 37 110
r 0.166048 1 0 ack 40 ------- 1 2.0 0.0 37 107
+ 0.166048 0 1 tcp 1040 ------- 1 0.0 2.0 41 112
+ 0.166048 0 1 tcp 1040 ------- 1 0.0 2.0 42 113
- 0.166048 0 1 tcp 1040 ------- 1 0.0 2.0 40 111
r 0.166216 0 1 tcp 1040 ------- 1 0.0 2.0 38 108
+ 0.166216 1 2 tcp 1040 ------- 1 0.0 2.0 38 108